<LesHouchesEvents version="1.0">
<header>
<!--
#*********************************************************************
#                                                                    *
#                       MadGraph/MadEvent                            *
#                                                                    *
#                      The new web generation                        *
#                                                                    *
#                   http://madgraph.hep.uiuc.edu                     *
#                   http://madgraph.phys.ucl.ac.be                   *
#                   http://madgraph.roma2.infn.it                    *
#                                                                    *
#            CP3 team                      Tim Stelzer               *
#      Universite de Louvain          University of Illinois         *
#                                                                    *
#....................................................................*
#                                                                    *
# This file contains all the information necessary to reproduce      *
# the events generated:                                              *
#                                                                    *
# 1. software version                                                *
# 2. proc_card.dat      : code generation info including model       *
# 3. param_card.dat     : model primary parameters in the LH format  *
# 4. run_card.dat       : running parameters (collider and cuts)     *
# 5. pythia_card.dat    : present only in the pythia event file      *
# 6. pgs_card.dat       : present only in the pgs event file         *
#                                                                    *
#                                                                    *
#*********************************************************************
-->
<MGVersion>
# MG/ME version    : 4.4.17
# madgraph version : 4.4.2
# template version : 2.4.8
# helas version    : 3.5
# model version    : usrmod_1.0.4
</MGVersion>
<MGProcCard>
#*********************************************************************
#                        MadGraph/MadEvent                           *
#                   http://madgraph.hep.uiuc.edu                     *
#                                                                    *
#                          proc_card.dat                             *
#                                                                    *
# This file is used to generate the code for a specific process.     *
# Some notation/conventions:                                         *
#                                                                    *
# 0. Do not modify the TAGS and their order.                         *
# 1. hash/pound is a comment.                                        *
# 2. The number after the @ is used as an identifier for the class   *
#    of processes. It can be any positive integer.                   *
# 3. The number of lines for the max couplings depends on how many   *
#    different classes of couplings are present in the model         *
#    In the SM these are just two: QED (which include EW) and QCD    *
# 4. Write "end_coup" after  the couplings list,                     *
#    to tell MG that the couplings input is over.                    *
# 5. Write "done" after the proc list to                             *
#    to tell MG that the proc input is over.                         *
# 6. Some model names available at present are:                      *
#    sm     =  Standard Model                                        *
#    smckm =  Standard Model with Cabibbo matrix                     *
#    mssm   =  Minimal Supersymmetric Standard Model                 *
#    2hdm   =  Generic Two Higgs Doublet model                       *
#    heft   =  Higgs EFT (+Standard Model)                           *
#    usrmod =  User Model                                            *
# 7. Don't leave spaces between the particles name in the            *
#    definition of the multiparticles.                               *
#*********************************************************************
#*********************************************************************
# Process(es) requested : mg2 input                                  *
#*********************************************************************
# Begin PROCESS # This is TAG. Do not modify this line
e- N+ > e- N+ x      # Radiative
QCD=0             # Max QCD couplings
QED=1             # Max QED couplings
QFD=0 
QND=1
QWD=9
QDS=2
end_coup           # End the couplings input
done               # this tells MG there are no more procs
# End PROCESS  # This is TAG. Do not modify this line
#*********************************************************************
# Model information                                                  *
#*********************************************************************
# Begin MODEL  # This is TAG. Do not modify this line
fixedAP2     
# End   MODEL  # This is TAG. Do not modify this line
#*********************************************************************
# Start multiparticle definitions                                    *
#*********************************************************************
# Begin MULTIPARTICLES # This is TAG. Do not modify this line
P uu~cc~dd~ss~gf+f-
J uu~cc~dd~ss~gf+f-
L+ e+mu+
L- e-mu-
vl vevm
vl~ ve~vm~
# End  MULTIPARTICLES # This is TAG. Do not modify this line
</MGProcCard>
<slha>
#*********************************************************************
#                        MadGraph/MadEvent                           *
#                   http://madgraph.hep.uiuc.edu                     *
#                                                                    *
#                         param_card.dat                             *
#                                                                    *
#   Les Houches friendly file for the SM parameters of MadGraph      *
#        Spectrum and decay widths produced by SMCalc                *
#                                                                    *
#  Please note the following IMPORTANT issues:                       *
#                                                                    *
# 0. REFRAIN from editing this file by hand! Some of the parame-     *
#    ters are not independent                                        *
#    (such as G_Fermi, alpha_em, sin(theta_W),MZ,MW) and serious     *
#    problems might be encountered (such as violation of unitarity   *
#    or gauge invariance).  Always use a calculator.                 *
#                                                                    *
# 1. alpha_S(MZ) has been used in the calculation of the parameters  *
#    but, for consistency, it will be reset by madgraph to the       *
#    value expected IF the pdfs for collisions with hadrons are      *
#    used. This value is KEPT by madgraph when no pdf are used       *
#    lpp(i)=0 .                                                      *
#                                                                    *
#  2. Values of the charm and bottom kinematic (pole) masses are     *
#     those used in the matrix elements and phase space UNLESS they  *
#     are set to ZERO from the start in the model (particles.dat)    *
#     This happens, for example,  when using 5-flavor QCD where      *
#     charm and bottom are treated as partons in the initial state   *
#     and a zero mass might be hardwired in the model definition.    *
#                                                                    *
##********************************************************************
Block MODSEL # Select Model
     0   1   #  0 1 = SM
Block SMINPUTS      # Standard Model inputs
     1         1.27900000E+02   # alpha_em(MZ)(-1) SM MSbar
     2         1.16600000E-05   # G_Fermi
     3         1.18000000E-01   # alpha_s(MZ) SM MSbar
     4         9.15445065E+01   # Z mass (as input parameter)
Block MGYUKAWA     # Yukawa masses m/v=y/sqrt(2)
#    PDG          YMASS
     5         4.20000000E+00   # mbottom for the Yukawa  y_b
     4         1.25000000E+00   # mcharm  for the Yukawa  y_c
     6         1.74300000E+02   # mtop    for the Yukawa  y_t
    15         1.77700000E+00   # mtau    for the Yukawa  y_ta
Block MGCKM     # CKM elements for MadGraph
     1   1     9.75000000E-01   # Vud for Cabibbo matrix
#===========================================================
# QUANTUM NUMBERS OF NEW STATE(S) (NON SM PDG CODE) IF ANY
# (see below for masses and decay tables)
# These blocks are automatically created by the MadGraph
# qnumbers.pl script from the particles.dat model file
#===========================================================
BLOCK QNUMBERS 611 # f-
         1  -3 # 3 times electric charge
         2  2 # number of spin states (2S+1)
         3  1 # colour rep (1: singlet, 3: triplet, 8: octet)
         4  1 # Particle/Antiparticle distinction (0=own anti)
BLOCK QNUMBERS 622 # x
         1  0 # 3 times electric charge
         2  3 # number of spin states (2S+1)
         3  1 # colour rep (1: singlet, 3: triplet, 8: octet)
         4  0 # Particle/Antiparticle distinction (0=own anti)
BLOCK QNUMBERS 623 # N-
         1  0 # 3 times electric charge
         2  2 # number of spin states (2S+1)
         3  1 # colour rep (1: singlet, 3: triplet, 8: octet)
         4  1 # Particle/Antiparticle distinction (0=own anti)
# END of QNUMBERS blocks
#===========================================================
Block MASS      #  Mass spectrum (kinematic masses)
#       PDG       Mass
         4     1.40000000E+00   # charm    pole mass
         5     4.20000000E+00   # bottom   pole mass
         6     1.74300000E+02   # top      pole mass
        11     0.51109989E-03   # electron mass
        13     0.10565837E+00   # muon     mass
        15     1.77700000E+00   # tau      mass
        23     9.15445065E+01   # Z        mass
        24     8.02673592E+01   # W        mass
        25     1.20000000E+02   # H        mass
       611 0.004 # FMASS
       622 0.012 # APMASS
       623     1.71300000e+02   # HPMASS (tungsten)
#            PDG       Width
DECAY       611     0.00000000e+00   # ELWIDTH
DECAY 622 0.000364396263 # APWIDTH
DECAY       623     0.00000000e+00   # HPWIDTH
DECAY         6     1.51013490E+00   # top width
DECAY        23     2.44639985E+00   # Z   width
DECAY        24     2.03535570E+00   # W   width
DECAY        25     6.79485838E-03   # H   width
#        BR           NDA        ID1       ID2
     7.00588389E-02    2           4        -4   # BR( H -> c  cbar  )
     7.61074375E-01    2           5        -5   # BR( H -> b  bbar  )
     0.00000000E+00    2           6        -6   # BR( H -> t  tbar  )
     3.65529942E-02    2          15       -15   # BR( H -> tau- tau+)
     5.84716539E-03    2          23        23   # BR( H -> Z   Z^(*))
     6.31545979E-02    2          24       -24   # BR( H -> W   W^(*))
     2.55499652E-02    2          21        21   # BR( H -> g   g    )
     1.20906932E-03    2          22        22   # BR( H -> A   A    )
BLOCK MGUSER
         1     1.00000000e-00   # epsilon ,mixing coefficient
         2     74.0000000e+00   # Znuc    ,nuclear charge
</slha>
<MGRunCard>
#*********************************************************************
#                       MadGraph/MadEvent                            *
#                  http://madgraph.hep.uiuc.edu                      *
#                                                                    *
#                        run_card.dat                                *
#                                                                    *
#  This file is used to set the parameters of the run.               *
#                                                                    *
#  Some notation/conventions:                                        *
#                                                                    *
#   Lines starting with a '# ' are info or comments                  *
#                                                                    *
#   mind the format:   value    = variable     ! comment             *
#*********************************************************************
#
#*******************                                                 
# Running parameters
#*******************                                                 
#                                                                    
#*********************************************************************
# Tag name for the run (one word)                                    *
#*********************************************************************
  'HPS'     = run_tag ! name of the run 
#*********************************************************************
# Run to generate the grid pack                                      *
#*********************************************************************
  .false.     = gridpack  !True = setting up the grid pack
#*********************************************************************
# Number of events and rnd seed                                      *
#*********************************************************************
   1000      = nevents ! Number of unweighted events requested 
188703 = iseed ! rnd seed (0=assigned automatically=default))
#*********************************************************************
# Collider type and energy                                           *
#*********************************************************************
        0     = lpp1  ! beam 1 type (0=NO PDF)
        0     = lpp2  ! beam 2 type (0=NO PDF)
4 = ebeam1  ! beam 1 energy in GeV
    171.3    = ebeam2  ! beam 2 energy in GeV
    0.000511  = mbeam1  ! beam 1 energy in GeV
    171.3    = mbeam2  ! beam 2 energy in GeV
#*********************************************************************
# Beam polarization from -100 (left-handed) to 100 (right-handed)    *
#*********************************************************************
        0     = polbeam1 ! beam polarization for beam 1
        0     = polbeam2 ! beam polarization for beam 2
#*********************************************************************
# PDF CHOICE: this automatically fixes also alpha_s and its evol.    *
#*********************************************************************
 'cteq6l1'    = pdlabel     ! PDF set                                     
#*********************************************************************
# Renormalization and factorization scales                           *
#*********************************************************************
 F        = fixed_ren_scale  ! if .true. use fixed ren scale
 F        = fixed_fac_scale  ! if .true. use fixed fac scale
 91.1880  = scale            ! fixed ren scale
 91.1880  = dsqrt_q2fact1    ! fixed fact scale for pdf1
 91.1880  = dsqrt_q2fact2    ! fixed fact scale for pdf2
 1        = scalefact        ! scale factor for event-by-event scales
 F        = fixed_couplings  ! if .false. calc. coupl. for every event
#*********************************************************************
# Matching - Warning! ickkw > 0 is still beta
#*********************************************************************
 0        = ickkw            ! 0 no matching, 1 MLM, 2 CKKW matching
#*********************************************************************
#                                                                    
#**********************************
32.9311829414 = bwcutoff*Gamma)
#**********************************
32.9311829414 = bwcutoff
#*******************                                                 
# Fixed-Target Cuts
#*******************                                                 
#
 0.0 = ef        ! minimum E for all f's
 100.0 = efmax     ! maximum E for all f's
 0.0 = thetafmin ! min angle for both f's
 100.0 = thetafmax ! max angle for both f's
 0.0 = thetaxfmin ! min angle (x direction) for both f's
 100.0 = thetaxfmax ! max angle (x direction) for both f's 
 0.0 = thetayfmin ! min angle (y direction) for both f's
 100.0 = thetayfmax ! max angle (y direction) for both f's 
 0.0 = xthetaxfmin ! min angle (x direction) for >=1 f's
 100.0 = xthetaxfmax ! max angle (x direction) for >=1 f's 
 0.0 = xthetayfmin ! min angle (y direction) for >=1 f's
 100.0 = xthetayfmax ! max angle (y direction) for >=1 f's 
 0.0 = mmff      ! min invariant mass of f+f- lepton pair
 100.0 = mmffmax  ! max invariant mass of f+f- lepton pair
 0.0 = xef       ! min. energy for at least one f
 0.0 = xthetaf   ! minimum angle for at least one f
 0.0 = eftot     ! minimum energy for the two f's
 0d0 = efrat     ! min. ratio Emin/Emax for the two f's
 0.0  = el     !!! 0.2 = el  !!! was 0.05 with normal cuts! minimum E for the charged leptons 
 0.0  = drll  !!! was 0.1  ! min distance between leptons 
 0.0  = mmll    ! min invariant mass of l+l- (same flavour) lepton pair
#
#*******************                                                 
# Standard Cuts
#*******************                                                 
#                                                                    
#*********************************************************************
# Minimum and maximum pt's                                           *
#*********************************************************************
  0  = ptj       ! minimum pt for the jets 
  0  = ptb       ! minimum pt for the b 
  0  = pta       ! minimum pt for the photons 
  0  = ptl       ! minimum pt for the charged leptons 
  0  = misset    ! minimum missing Et (sum of neutrino's momenta)
  0  = ptheavy   ! minimum pt for one heavy final state
 1.0 = ptonium   ! minimum pt for the quarkonium states
 1d5 = ptjmax    ! maximum pt for the jets
 1d5 = ptbmax    ! maximum pt for the b
 1d5 = ptamax    ! maximum pt for the photons
 1d9 = ptlmax    ! maximum pt for the charged leptons
 1d9 = missetmax ! maximum missing Et (sum of neutrino's momenta)
#*********************************************************************
# Minimum and maximum E's (in the lab frame)                         *
#*********************************************************************
  0  = ej     ! minimum E for the jets 
  0  = eb     ! minimum E for the b 
  0  = ea     ! minimum E for the photons 
 1d5  = ejmax ! maximum E for the jets
 1d5  = ebmax ! maximum E for the b
 1d5  = eamax ! maximum E for the photons
 1.2  = elmax ! maximum E for the charged leptons
#*********************************************************************
# Maximum and minimum rapidity                                       *
#*********************************************************************
 1d5  = etaj    ! max rap for the jets 
 1d5  = etab    ! max rap for the b 
 1d5  = etaa    ! max rap for the photons 
 1d5  = etal     !!! 1(2) wth cuts ! max rap for the charged leptons 
 1d5  = etafl     !!! 0(1) wth cuts ! max rap for the charged leptons 
 0.0  = etaonium ! max rap for the quarkonium states
 0d0  = etajmin ! min rap for the jets
 0d0  = etabmin ! min rap for the b
 0d0  = etaamin ! min rap for the photons
 0d0  = etalmin ! main rap for the charged lepton
#*********************************************************************
# Minimum and maximum DeltaR distance                                *
#*********************************************************************
 0   = drjj    ! min distance between jets 
 0   = drbb    ! min distance between b's 
 0   = draa    ! min distance between gammas 
 0   = drbj    ! min distance between b and jet 
 0   = draj    ! min distance between gamma and jet 
 0   = drjl    ! min distance between jet and lepton 
 0   = drab    ! min distance between gamma and b 
 0   = drbl    ! min distance between b and lepton 
 0   = dral    ! min distance between gamma and lepton 
 1d2 = drjjmax ! max distance between jets
 1d2 = drbbmax ! max distance between b's
 1d9 = drllmax ! max distance between leptons
 1d2 = draamax ! max distance between gammas
 1d2 = drbjmax ! max distance between b and jet
 1d2 = drajmax ! max distance between gamma and jet
 1d2 = drjlmax ! max distance between jet and lepton
 1d2 = drabmax ! max distance between gamma and b
 1d2 = drblmax ! max distance between b and lepton
 1d2 = dralmax ! maxdistance between gamma and lepton
#*********************************************************************
# Minimum and maximum invariant mass for pairs                       *
#*********************************************************************
 0   = mmjj    ! min invariant mass of a jet pair 
 0   = mmbb    ! min invariant mass of a b pair 
 0   = mmaa    ! min invariant mass of gamma gamma pair
 1d5 = mmjjmax ! max invariant mass of a jet pair
 1d5 = mmbbmax ! max invariant mass of a b pair
 1d5 = mmaamax ! max invariant mass of gamma gamma pair
 1d5 = mmllmax ! max invariant mass of l+l- (same flavour) lepton pair
#*********************************************************************
# Minimum and maximum invariant mass for all letpons                 *
#*********************************************************************
 0   = mmnl    ! min invariant mass for all letpons (l+- and vl) 
 1d9 = mmnlmax ! max invariant mass for all letpons (l+- and vl) 
#*********************************************************************
# Inclusive cuts                                                     *
#*********************************************************************
 0  = xptj ! minimum pt for at least one jet  
 0  = xptb ! minimum pt for at least one b 
 0  = xpta ! minimum pt for at least one photon 
 0  = xptl ! minimum pt for at least one charged lepton 
#*********************************************************************
# Control the pt's of the jets sorted by pt                          *
#*********************************************************************
 0   = ptj1min ! minimum pt for the leading jet in pt
 0   = ptj2min ! minimum pt for the second jet in pt
 0   = ptj3min ! minimum pt for the third jet in pt
 0   = ptj4min ! minimum pt for the fourth jet in pt
 1d5 = ptj1max ! maximum pt for the leading jet in pt 
 1d5 = ptj2max ! maximum pt for the second jet in pt
 1d5 = ptj3max ! maximum pt for the third jet in pt
 1d5 = ptj4max ! maximum pt for the fourth jet in pt
 0   = cutuse  ! reject event if fails any (0) / all (1) jet pt cuts
#*********************************************************************
# Control the Ht(k)=Sum of k leading jets                            *
#*********************************************************************
 0   = htjmin ! minimum jet HT=Sum(jet pt)
 1d5 = htjmax ! maximum jet HT=Sum(jet pt)
 0   = ht2min ! minimum Ht for the two leading jets
 0   = ht3min ! minimum Ht for the three leading jets
 0   = ht4min ! minimum Ht for the four leading jets
 1d5 = ht2max ! maximum Ht for the two leading jets
 1d5 = ht3max ! maximum Ht for the three leading jets
 1d5 = ht4max ! maximum Ht for the four leading jets
#*********************************************************************
# WBF cuts                                                           *
#*********************************************************************
 0   = xetamin ! minimum rapidity for two jets in the WBF case  
 0   = deltaeta ! minimum rapidity for two jets in the WBF case 
#*********************************************************************
# maximal pdg code for quark to be considered as a jet               *
# otherwise b cuts are applied                                       *
#*********************************************************************
 4 = maxjetflavor
#*********************************************************************
# Jet measure cuts                                                   *
#*********************************************************************
 0   = xqcut   ! minimum kt jet measure between partons
#*********************************************************************
</MGRunCard>
<MGGenerationInfo>
#  Number of Events        :        1000
#  Integrated weight (pb)  :  .35640E+12
#  Truncated wgt (pb)      :  .96373E+09
#  Unit wgt                :  .35640E+09
</MGGenerationInfo>
</header>
<init>
       11     -623  0.40000000000E+01  0.17130000000E+03 0 0     0     0 3  1
  0.35640298650E+12  0.46938393323E+10  0.35640000000E+09   0
</init>
<event>
 5   0  0.3564000E+09  0.9118800E+02  0.7818608E-02  0.1180000E+00
       11   -1    0    0    0    0  0.00000000000E+00  0.00000000000E+00  0.39999999673E+01  0.40000000000E+01  0.51109989000E-03 0.  1.
     -623   -1    0    0    0    0  0.00000000000E+00  0.00000000000E+00  0.12525980253E-10  0.17130000000E+03  0.17130000000E+03 0.  1.
       11    1    1    2    0    0 -0.13551167173E-02  0.55708292288E-02  0.22119798016E+00  0.22127285900E+00  0.51109989000E-03 0.  1.
     -623    1    1    2    0    0  0.93836155604E-03 -0.38128272028E-03  0.97489854986E-04  0.17130000000E+03  0.17130000000E+03 0.  1.
      622    1    1    2    0    0  0.41675516128E-03 -0.51895465085E-02  0.37787044973E+01  0.37787271380E+01  0.12000000000E-01 0.  1.
</event>
<event>
 5   0  0.3564000E+09  0.9118800E+02  0.7818608E-02  0.1180000E+00
       11   -1    0    0    0    0  0.00000000000E+00  0.00000000000E+00  0.39999999673E+01  0.40000000000E+01  0.51109989000E-03 0. -1.
     -623   -1    0    0    0    0  0.00000000000E+00  0.00000000000E+00  0.12525980253E-10  0.17130000000E+03  0.17130000000E+03 0.  1.
       11    1    1    2    0    0 -0.16559976304E-02  0.19695629874E-02  0.20459697121E+00  0.20461379073E+00  0.51109989000E-03 0. -1.
     -623    1    1    2    0    0 -0.22173040960E-03 -0.77968392763E-03  0.36410264069E-04  0.17130000000E+03  0.17130000000E+03 0.  1.
      622    1    1    2    0    0  0.18777280400E-02 -0.11898790598E-02  0.37953665859E+01  0.37953862074E+01  0.12000000000E-01 0. -1.
</event>
<event>
 5   0  0.3564000E+09  0.9118800E+02  0.7818608E-02  0.1180000E+00
       11   -1    0    0    0    0  0.00000000000E+00  0.00000000000E+00  0.39999999673E+01  0.40000000000E+01  0.51109989000E-03 0. -1.
     -623   -1    0    0    0    0  0.00000000000E+00  0.00000000000E+00  0.12525980253E-10  0.17130000000E+03  0.17130000000E+03 0.  1.
       11    1    1    2    0    0  0.32405181636E-02 -0.21835834104E-02  0.10311347914E+01  0.10311423220E+01  0.51109989000E-03 0. -1.
     -623    1    1    2    0    0 -0.33477195633E-03  0.32628116665E-03  0.33753431813E-04  0.17130000000E+03  0.17130000000E+03 0.  1.
      622    1    1    2    0    0 -0.29057462073E-02  0.18573022437E-02  0.29688314225E+01  0.29688576773E+01  0.12000000000E-01 0.  0.
</event>
<event>
 5   0  0.3564000E+09  0.9118800E+02  0.7818608E-02  0.1180000E+00
       11   -1    0    0    0    0  0.00000000000E+00  0.00000000000E+00  0.39999999673E+01  0.40000000000E+01  0.51109989000E-03 0.  1.
     -623   -1    0    0    0    0  0.00000000000E+00  0.00000000000E+00  0.12525980253E-10  0.17130000000E+03  0.17130000000E+03 0.  1.
       11    1    1    2    0    0 -0.60052180195E-02  0.33066205484E-02  0.10473785850E+00  0.10496321551E+00  0.51109989000E-03 0.  1.
     -623    1    1    2    0    0  0.13683816413E-01 -0.56157861069E-02  0.25270151992E-03  0.17130000064E+03  0.17130000000E+03 0.  1.
      622    1    1    2    0    0 -0.76785983883E-02  0.23091655566E-02  0.38950094060E+01  0.38950361443E+01  0.12000000000E-01 0.  1.
</event>
<event>
 5   0  0.3564000E+09  0.9118800E+02  0.7818608E-02  0.1180000E+00
       11   -1    0    0    0    0  0.00000000000E+00  0.00000000000E+00  0.39999999673E+01  0.40000000000E+01  0.51109989000E-03 0.  1.
     -623   -1    0    0    0    0  0.00000000000E+00  0.00000000000E+00  0.12525980253E-10  0.17130000000E+03  0.17130000000E+03 0. -1.
       11    1    1    2    0    0 -0.11341864414E-02 -0.52326197110E-03  0.40035339433E-01  0.40058080441E-01  0.51109989000E-03 0.  1.
     -623    1    1    2    0    0  0.23168907847E-02 -0.41773296224E-02  0.43923619349E-04  0.17130000007E+03  0.17130000000E+03 0. -1.
      622    1    1    2    0    0 -0.11827043463E-02  0.47005915990E-02  0.39599207096E+01  0.39599418582E+01  0.12000000000E-01 0.  1.
</event>
<event>
 5   0  0.3564000E+09  0.9118800E+02  0.7818608E-02  0.1180000E+00
       11   -1    0    0    0    0  0.00000000000E+00  0.00000000000E+00  0.39999999673E+01  0.40000000000E+01  0.51109989000E-03 0. -1.
     -623   -1    0    0    0    0  0.00000000000E+00  0.00000000000E+00  0.12525980253E-10  0.17130000000E+03  0.17130000000E+03 0.  1.
       11    1    1    2    0    0 -0.14696698592E-02  0.25526237265E-02  0.18592633186E+00  0.18595036413E+00  0.51109989000E-03 0. -1.
     -623    1    1    2    0    0 -0.95658680039E-03 -0.64061679119E-03  0.44132094801E-04  0.17130000000E+03  0.17130000000E+03 0.  1.
      622    1    1    2    0    0  0.24262566596E-02 -0.19120069353E-02  0.38140295034E+01  0.38140496320E+01  0.12000000000E-01 0. -1.
</event>
<event>
 5   0  0.3564000E+09  0.9118800E+02  0.7818608E-02  0.1180000E+00
       11   -1    0    0    0    0  0.00000000000E+00  0.00000000000E+00  0.39999999673E+01  0.40000000000E+01  0.51109989000E-03 0.  1.
     -623   -1    0    0    0    0  0.00000000000E+00  0.00000000000E+00  0.12525980253E-10  0.17130000000E+03  0.17130000000E+03 0. -1.
       11    1    1    2    0    0 -0.14233555276E-01  0.67672828033E-02  0.10804008850E+01  0.10805159525E+01  0.51109989000E-03 0.  1.
     -623    1    1    2    0    0  0.16844861433E-01 -0.10801432293E-01  0.14482082437E-03  0.17130000117E+03  0.17130000000E+03 0. -1.
      622    1    1    2    0    0 -0.26113061565E-02  0.40341494895E-02  0.29194542616E+01  0.29194828786E+01  0.12000000000E-01 0.  1.
</event>
<event>
 5   0  0.3564000E+09  0.9118800E+02  0.7818608E-02  0.1180000E+00
       11   -1    0    0    0    0  0.00000000000E+00  0.00000000000E+00  0.39999999673E+01  0.40000000000E+01  0.51109989000E-03 0. -1.
     -623   -1    0    0    0    0  0.00000000000E+00  0.00000000000E+00  0.12525980253E-10  0.17130000000E+03  0.17130000000E+03 0. -1.
       11    1    1    2    0    0  0.95078738395E-02  0.68945930995E-02  0.46300554453E+00  0.46315475876E+00  0.51109989000E-03 0. -1.
     -623    1    1    2    0    0  0.70369442846E-04  0.15995607186E-03  0.18954417555E-03  0.17130000000E+03  0.17130000000E+03 0. -1.
      622    1    1    2    0    0 -0.95782432824E-02 -0.70545491713E-02  0.35368048787E+01  0.35368452410E+01  0.12000000000E-01 0. -1.
</event>
<event>
 5   0  0.3564000E+09  0.9118800E+02  0.7818608E-02  0.1180000E+00
       11   -1    0    0    0    0  0.00000000000E+00  0.00000000000E+00  0.39999999673E+01  0.40000000000E+01  0.51109989000E-03 0. -1.
     -623   -1    0    0    0    0  0.00000000000E+00  0.00000000000E+00  0.12525980253E-10  0.17130000000E+03  0.17130000000E+03 0.  1.
       11    1    1    2    0    0 -0.39331600514E-02 -0.98682470414E-02  0.84893655015E+00  0.84900316810E+00  0.51109989000E-03 0. -1.
     -623    1    1    2    0    0 -0.28465476987E-03  0.26654403745E-02  0.10051170500E-03  0.17130000002E+03  0.17130000000E+03 0.  1.
      622    1    1    2    0    0  0.42178148212E-02  0.72028066679E-02  0.31509629042E+01  0.31509968096E+01  0.12000000000E-01 0. -1.
</event>
<event>
 5   0  0.3564000E+09  0.9118800E+02  0.7818608E-02  0.1180000E+00
       11   -1    0    0    0    0  0.00000000000E+00  0.00000000000E+00  0.39999999673E+01  0.40000000000E+01  0.51109989000E-03 0. -1.
     -623   -1    0    0    0    0  0.00000000000E+00  0.00000000000E+00  0.12525980253E-10  0.17130000000E+03  0.17130000000E+03 0.  1.
       11    1    1    2    0    0  0.25775795261E-02  0.42897016554E-02  0.12962989745E+00  0.12972747200E+00  0.51109989000E-03 0. -1.
     -623    1    1    2    0    0 -0.28797208670E-02 -0.64288593235E-03  0.11790067557E-03  0.17130000003E+03  0.17130000000E+03 0.  1.
      622    1    1    2    0    0  0.30214134097E-03 -0.36468157231E-02  0.38702521692E+01  0.38702725025E+01  0.12000000000E-01 0. -1.
</event>
<event>
 5   0  0.3564000E+09  0.9118800E+02  0.7818608E-02  0.1180000E+00
       11   -1    0    0    0    0  0.00000000000E+00  0.00000000000E+00  0.39999999673E+01  0.40000000000E+01  0.51109989000E-03 0. -1.
     -623   -1    0    0    0    0  0.00000000000E+00  0.00000000000E+00  0.12525980253E-10  0.17130000000E+03  0.17130000000E+03 0. -1.
       11    1    1    2    0    0 -0.18821582360E-02 -0.12159579114E-04  0.23003953176E+00  0.23004779952E+00  0.51109989000E-03 0. -1.
     -623    1    1    2    0    0  0.62178082597E-04 -0.50470291417E-04  0.27773398096E-04  0.17130000000E+03  0.17130000000E+03 0. -1.
      622    1    1    2    0    0  0.18199801534E-02  0.62629870531E-04  0.37699326622E+01  0.37699522005E+01  0.12000000000E-01 0. -1.
</event>
<event>
 5   0  0.3564000E+09  0.9118800E+02  0.7818608E-02  0.1180000E+00
       11   -1    0    0    0    0  0.00000000000E+00  0.00000000000E+00  0.39999999673E+01  0.40000000000E+01  0.51109989000E-03 0.  1.
     -623   -1    0    0    0    0  0.00000000000E+00  0.00000000000E+00  0.12525980253E-10  0.17130000000E+03  0.17130000000E+03 0.  1.
       11    1    1    2    0    0 -0.37394176296E-03  0.19087214877E-02  0.63985622504E-01  0.64017217680E-01  0.51109989000E-03 0.  1.
     -623    1    1    2    0    0 -0.13661992891E-02 -0.30901070484E-03  0.50570833957E-04  0.17130000001E+03  0.17130000000E+03 0.  1.
      622    1    1    2    0    0  0.17401410520E-02 -0.15997107829E-02  0.39359637740E+01  0.39359827766E+01  0.12000000000E-01 0.  1.
</event>
<event>
 5   0  0.3564000E+09  0.9118800E+02  0.7818608E-02  0.1180000E+00
       11   -1    0    0    0    0  0.00000000000E+00  0.00000000000E+00  0.39999999673E+01  0.40000000000E+01  0.51109989000E-03 0. -1.
     -623   -1    0    0    0    0  0.00000000000E+00  0.00000000000E+00  0.12525980253E-10  0.17130000000E+03  0.17130000000E+03 0.  1.
       11    1    1    2    0    0 -0.84535263097E-02 -0.39786098001E-02  0.10938164183E+01  0.10938564392E+01  0.51109989000E-03 0. -1.
     -623    1    1    2    0    0 -0.46794512209E-04  0.15985027091E-03  0.79704228171E-04  0.17130000000E+03  0.17130000000E+03 0.  1.
      622    1    1    2    0    0  0.85003208219E-02  0.38187595292E-02  0.29061038449E+01  0.29061435607E+01  0.12000000000E-01 0. -1.
</event>
<event>
 5   0  0.3564000E+09  0.9118800E+02  0.7818608E-02  0.1180000E+00
       11   -1    0    0    0    0  0.00000000000E+00  0.00000000000E+00  0.39999999673E+01  0.40000000000E+01  0.51109989000E-03 0.  1.
     -623   -1    0    0    0    0  0.00000000000E+00  0.00000000000E+00  0.12525980253E-10  0.17130000000E+03  0.17130000000E+03 0. -1.
       11    1    1    2    0    0  0.13887902407E-01 -0.20677912353E-02  0.73941008073E+00  0.73954356079E+00  0.51109989000E-03 0.  1.
     -623    1    1    2    0    0  0.20787691723E-03 -0.13657061175E-02  0.18781401468E-03  0.17130000001E+03  0.17130000000E+03 0. -1.
      622    1    1    2    0    0 -0.14095779324E-01  0.34334973528E-02  0.32604020726E+01  0.32604564335E+01  0.12000000000E-01 0.  1.
</event>
<event>
 5   0  0.3564000E+09  0.9118800E+02  0.7818608E-02  0.1180000E+00
       11   -1    0    0    0    0  0.00000000000E+00  0.00000000000E+00  0.39999999673E+01  0.40000000000E+01  0.51109989000E-03 0. -1.
     -623   -1    0    0    0    0  0.00000000000E+00  0.00000000000E+00  0.12525980253E-10  0.17130000000E+03  0.17130000000E+03 0.  1.
       11    1    1    2    0    0 -0.28059342691E-02 -0.10910484352E-02  0.52829836725E-02  0.61020319068E-02  0.51109989000E-03 0. -1.
     -623    1    1    2    0    0 -0.97205676809E-03  0.23355507859E-03  0.83892704665E-03  0.17130000000E+03  0.17130000000E+03 0.  1.
      622    1    1    2    0    0  0.37779910372E-02  0.85749335660E-03  0.39938780567E+01  0.39938979632E+01  0.12000000000E-01 0. -1.
</event>
<event>
 5   0  0.3564000E+09  0.9118800E+02  0.7818608E-02  0.1180000E+00
       11   -1    0    0    0    0  0.00000000000E+00  0.00000000000E+00  0.39999999673E+01  0.40000000000E+01  0.51109989000E-03 0.  1.
     -623   -1    0    0    0    0  0.00000000000E+00  0.00000000000E+00  0.12525980253E-10  0.17130000000E+03  0.17130000000E+03 0.  1.
       11    1    1    2    0    0 -0.87211123386E-03 -0.72212937145E-03  0.84217577005E-01  0.84226738917E-01  0.51109989000E-03 0.  1.
     -623    1    1    2    0    0  0.37642760417E-02 -0.12157342689E-02  0.29109749864E-04  0.17130000005E+03  0.17130000000E+03 0.  1.
      622    1    1    2    0    0 -0.28921648126E-02  0.19378636419E-02  0.39157532856E+01  0.39157732204E+01  0.12000000000E-01 0.  1.
</event>
<event>
 5   0  0.3564000E+09  0.9118800E+02  0.7818608E-02  0.1180000E+00
       11   -1    0    0    0    0  0.00000000000E+00  0.00000000000E+00  0.39999999673E+01  0.40000000000E+01  0.51109989000E-03 0.  1.
     -623   -1    0    0    0    0  0.00000000000E+00  0.00000000000E+00  0.12525980253E-10  0.17130000000E+03  0.17130000000E+03 0. -1.
       11    1    1    2    0    0 -0.40349549744E-04 -0.81084868108E-03  0.25322423510E-01  0.25340589164E-01  0.51109989000E-03 0.  1.
     -623    1    1    2    0    0 -0.12834593631E-03 -0.74798388208E-05  0.36335688840E-04  0.17130000000E+03  0.17130000000E+03 0. -1.
      622    1    1    2    0    0  0.16869548603E-03  0.81832851990E-03  0.39746412075E+01  0.39746594101E+01  0.12000000000E-01 0.  1.
</event>
<event>
 5   0  0.3564000E+09  0.9118800E+02  0.7818608E-02  0.1180000E+00
       11   -1    0    0    0    0  0.00000000000E+00  0.00000000000E+00  0.39999999673E+01  0.40000000000E+01  0.51109989000E-03 0. -1.
     -623   -1    0    0    0    0  0.00000000000E+00  0.00000000000E+00  0.12525980253E-10  0.17130000000E+03  0.17130000000E+03 0.  1.
       11    1    1    2    0    0 -0.16634693327E-01 -0.12188750189E-01  0.88557540855E+00  0.88581563777E+00  0.51109989000E-03 0. -1.
     -623    1    1    2    0    0 -0.10935564087E-01 -0.10017496317E-02  0.41365031546E-03  0.17130000035E+03  0.17130000000E+03 0.  1.
      622    1    1    2    0    0  0.27570257417E-01  0.13190499821E-01  0.31140109096E+01  0.31141840109E+01  0.12000000000E-01 0. -1.
</event>
<event>
 5   0  0.3564000E+09  0.9118800E+02  0.7818608E-02  0.1180000E+00
       11   -1    0    0    0    0  0.00000000000E+00  0.00000000000E+00  0.39999999673E+01  0.40000000000E+01  0.51109989000E-03 0. -1.
     -623   -1    0    0    0    0  0.00000000000E+00  0.00000000000E+00  0.12525980253E-10  0.17130000000E+03  0.17130000000E+03 0.  1.
       11    1    1    2    0    0 -0.85372436184E-03 -0.11019184153E-02  0.18348114706E+00  0.18348715382E+00  0.51109989000E-03 0. -1.
     -623    1    1    2    0    0  0.14532394360E-04  0.68875976031E-04  0.25071651650E-04  0.17130000000E+03  0.17130000000E+03 0.  1.
      622    1    1    2    0    0  0.83919196743E-03  0.10330424390E-02  0.38164937642E+01  0.38165128617E+01  0.12000000000E-01 0.  0.
</event>
<event>
 5   0  0.3564000E+09  0.9118800E+02  0.7818608E-02  0.1180000E+00
       11   -1    0    0    0    0  0.00000000000E+00  0.00000000000E+00  0.39999999673E+01  0.40000000000E+01  0.51109989000E-03 0.  1.
     -623   -1    0    0    0    0  0.00000000000E+00  0.00000000000E+00  0.12525980253E-10  0.17130000000E+03  0.17130000000E+03 0. -1.
       11    1    1    2    0    0 -0.73291793265E-03 -0.55161271686E-03  0.46946204499E-01  0.46957946958E-01  0.51109989000E-03 0.  1.
     -623    1    1    2    0    0  0.14384498317E-05 -0.11810619568E-03  0.30048133459E-04  0.17130000000E+03  0.17130000000E+03 0. -1.
      622    1    1    2    0    0  0.73147948281E-03  0.66971891254E-03  0.39530237147E+01  0.39530420530E+01  0.12000000000E-01 0.  1.
</event>
<event>
 5   0  0.3564000E+09  0.9118800E+02  0.7818608E-02  0.1180000E+00
       11   -1    0    0    0    0  0.00000000000E+00  0.00000000000E+00  0.39999999673E+01  0.40000000000E+01  0.51109989000E-03 0.  1.
     -623   -1    0    0    0    0  0.00000000000E+00  0.00000000000E+00  0.12525980253E-10  0.17130000000E+03  0.17130000000E+03 0.  1.
       11    1    1    2    0    0 -0.54934359079E-02  0.31709905503E-02  0.10883631406E+01  0.10883817437E+01  0.51109989000E-03 0.  1.
     -623    1    1    2    0    0  0.88055156743E-02 -0.14186739902E-02  0.45942436928E-04  0.17130000023E+03  0.17130000000E+03 0.  1.
      622    1    1    2    0    0 -0.33120797664E-02 -0.17523165600E-02  0.29115908843E+01  0.29116180241E+01  0.12000000000E-01 0.  1.
</event>
<event>
 5   0  0.3564000E+09  0.9118800E+02  0.7818608E-02  0.1180000E+00
       11   -1    0    0    0    0  0.00000000000E+00  0.00000000000E+00  0.39999999673E+01  0.40000000000E+01  0.51109989000E-03 0. -1.
     -623   -1    0    0    0    0  0.00000000000E+00  0.00000000000E+00  0.12525980253E-10  0.17130000000E+03  0.17130000000E+03 0.  1.
       11    1    1    2    0    0 -0.32146110968E-03  0.17947439604E-02  0.36442916846E+00  0.36443408799E+00  0.51109989000E-03 0. -1.
     -623    1    1    2    0    0 -0.54102482887E-03 -0.20312068397E-03  0.25142975944E-04  0.17130000000E+03  0.17130000000E+03 0.  1.
      622    1    1    2    0    0  0.86248593855E-03 -0.15916232764E-02  0.36355456559E+01  0.36355659110E+01  0.12000000000E-01 0. -1.
</event>
<event>
 5   0  0.3564000E+09  0.9118800E+02  0.7818608E-02  0.1180000E+00
       11   -1    0    0    0    0  0.00000000000E+00  0.00000000000E+00  0.39999999673E+01  0.40000000000E+01  0.51109989000E-03 0.  1.
     -623   -1    0    0    0    0  0.00000000000E+00  0.00000000000E+00  0.12525980253E-10  0.17130000000E+03  0.17130000000E+03 0.  1.
       11    1    1    2    0    0 -0.89454591608E-04  0.79219477522E-03  0.23482958914E+00  0.23483149859E+00  0.51109989000E-03 0.  1.
     -623    1    1    2    0    0  0.33010490083E-03 -0.14126677560E-03  0.21063845865E-04  0.17130000000E+03  0.17130000000E+03 0.  1.
      622    1    1    2    0    0 -0.24065030923E-03 -0.65092799962E-03  0.37651493144E+01  0.37651685010E+01  0.12000000000E-01 0.  1.
</event>
<event>
 5   0  0.3564000E+09  0.9118800E+02  0.7818608E-02  0.1180000E+00
       11   -1    0    0    0    0  0.00000000000E+00  0.00000000000E+00  0.39999999673E+01  0.40000000000E+01  0.51109989000E-03 0.  1.
     -623   -1    0    0    0    0  0.00000000000E+00  0.00000000000E+00  0.12525980253E-10  0.17130000000E+03  0.17130000000E+03 0.  1.
       11    1    1    2    0    0  0.60933456543E-03 -0.15834621135E-03  0.59318936949E-01  0.59324479483E-01  0.51109989000E-03 0.  1.
     -623    1    1    2    0    0 -0.55991759581E-04  0.67265458488E-05  0.23822693499E-04  0.17130000000E+03  0.17130000000E+03 0.  1.
      622    1    1    2    0    0 -0.55334280580E-03  0.15161966549E-03  0.39406572112E+01  0.39406755239E+01  0.12000000000E-01 0.  1.
</event>
<event>
 5   0  0.3564000E+09  0.9118800E+02  0.7818608E-02  0.1180000E+00
       11   -1    0    0    0    0  0.00000000000E+00  0.00000000000E+00  0.39999999673E+01  0.40000000000E+01  0.51109989000E-03 0. -1.
     -623   -1    0    0    0    0  0.00000000000E+00  0.00000000000E+00  0.12525980253E-10  0.17130000000E+03  0.17130000000E+03 0. -1.
       11    1    1    2    0    0  0.59107230060E-04 -0.17862987926E-02  0.31155046693E+00  0.31155601266E+00  0.51109989000E-03 0. -1.
     -623    1    1    2    0    0 -0.64109014265E-03  0.10195567793E-02  0.25163412124E-04  0.17130000000E+03  0.17130000000E+03 0. -1.
      622    1    1    2    0    0  0.58198291559E-03  0.76674200861E-03  0.36884243557E+01  0.36884440018E+01  0.12000000000E-01 0. -1.
</event>
<event>
 5   0  0.3564000E+09  0.9118800E+02  0.7818608E-02  0.1180000E+00
       11   -1    0    0    0    0  0.00000000000E+00  0.00000000000E+00  0.39999999673E+01  0.40000000000E+01  0.51109989000E-03 0.  1.
     -623   -1    0    0    0    0  0.00000000000E+00  0.00000000000E+00  0.12525980253E-10  0.17130000000E+03  0.17130000000E+03 0. -1.
       11    1    1    2    0    0  0.33859355049E-03  0.34888227044E-03  0.14311851923E-01  0.14329225057E-01  0.51109989000E-03 0.  1.
     -623    1    1    2    0    0 -0.64492694188E-03  0.34778454081E-03  0.35479477567E-04  0.17130000000E+03  0.17130000000E+03 0. -1.
      622    1    1    2    0    0  0.30633339139E-03 -0.69666681124E-03  0.39856526360E+01  0.39856707734E+01  0.12000000000E-01 0.  1.
</event>
<event>
 5   0  0.3564000E+09  0.9118800E+02  0.7818608E-02  0.1180000E+00
       11   -1    0    0    0    0  0.00000000000E+00  0.00000000000E+00  0.39999999673E+01  0.40000000000E+01  0.51109989000E-03 0. -1.
     -623   -1    0    0    0    0  0.00000000000E+00  0.00000000000E+00  0.12525980253E-10  0.17130000000E+03  0.17130000000E+03 0.  1.
       11    1    1    2    0    0 -0.14636815252E-02 -0.10969855152E-01  0.74478664665E+00  0.74486904241E+00  0.51109989000E-03 0. -1.
     -623    1    1    2    0    0  0.40252350535E-03  0.21037999037E-03  0.12243802929E-03  0.17130000000E+03  0.17130000000E+03 0.  1.
      622    1    1    2    0    0  0.10611580200E-02  0.10759475162E-01  0.32550908809E+01  0.32551309552E+01  0.12000000000E-01 0. -1.
</event>
<event>
 5   0  0.3564000E+09  0.9118800E+02  0.7818608E-02  0.1180000E+00
       11   -1    0    0    0    0  0.00000000000E+00  0.00000000000E+00  0.39999999673E+01  0.40000000000E+01  0.51109989000E-03 0. -1.
     -623   -1    0    0    0    0  0.00000000000E+00  0.00000000000E+00  0.12525980253E-10  0.17130000000E+03  0.17130000000E+03 0.  1.
       11    1    1    2    0    0  0.94848336479E-03  0.12918999296E-03  0.19056206987E+00  0.19056515947E+00  0.51109989000E-03 0. -1.
     -623    1    1    2    0    0 -0.59100531461E-04  0.73595406261E-04  0.22066698335E-04  0.17130000000E+03  0.17130000000E+03 0.  1.
      622    1    1    2    0    0 -0.88938283333E-03 -0.20278539922E-03  0.38094158308E+01  0.38094348405E+01  0.12000000000E-01 0. -1.
</event>
<event>
 5   0  0.3564000E+09  0.9118800E+02  0.7818608E-02  0.1180000E+00
       11   -1    0    0    0    0  0.00000000000E+00  0.00000000000E+00  0.39999999673E+01  0.40000000000E+01  0.51109989000E-03 0.  1.
     -623   -1    0    0    0    0  0.00000000000E+00  0.00000000000E+00  0.12525980253E-10  0.17130000000E+03  0.17130000000E+03 0. -1.
       11    1    1    2    0    0  0.34592152181E-02 -0.24588475760E-02  0.79114989349E-01  0.79230391026E-01  0.51109989000E-03 0.  1.
     -623    1    1    2    0    0 -0.38274769695E-03  0.96430267137E-03  0.13522786283E-03  0.17130000000E+03  0.17130000000E+03 0. -1.
      622    1    1    2    0    0 -0.30764675212E-02  0.14945449046E-02  0.39207497501E+01  0.39207696058E+01  0.12000000000E-01 0.  1.
</event>
<event>
 5   0  0.3564000E+09  0.9118800E+02  0.7818608E-02  0.1180000E+00
       11   -1    0    0    0    0  0.00000000000E+00  0.00000000000E+00  0.39999999673E+01  0.40000000000E+01  0.51109989000E-03 0.  1.
     -623   -1    0    0    0    0  0.00000000000E+00  0.00000000000E+00  0.12525980253E-10  0.17130000000E+03  0.17130000000E+03 0. -1.
       11    1    1    2    0    0 -0.90911740870E-02  0.56966883609E-03  0.21615613185E+00  0.21634858107E+00  0.51109989000E-03 0.  1.
     -623    1    1    2    0    0 -0.55923319285E-03  0.65430910030E-03  0.22395316657E-03  0.17130000000E+03  0.17130000000E+03 0. -1.
      622    1    1    2    0    0  0.96504072799E-02 -0.12239779364E-02  0.37836198826E+01  0.37836514169E+01  0.12000000000E-01 0.  1.
</event>
<event>
 5   0  0.3564000E+09  0.9118800E+02  0.7818608E-02  0.1180000E+00
       11   -1    0    0    0    0  0.00000000000E+00  0.00000000000E+00  0.39999999673E+01  0.40000000000E+01  0.51109989000E-03 0.  1.
     -623   -1    0    0    0    0  0.00000000000E+00  0.00000000000E+00  0.12525980253E-10  0.17130000000E+03  0.17130000000E+03 0.  1.
       11    1    1    2    0    0 -0.23520669177E-02  0.12565820289E-02  0.32983880965E-01  0.33095450500E-01  0.51109989000E-03 0.  1.
     -623    1    1    2    0    0  0.45103415242E-02 -0.32265498806E-02  0.13085319993E-03  0.17130000009E+03  0.17130000000E+03 0.  1.
      622    1    1    2    0    0 -0.21582746085E-02  0.19699678531E-02  0.39668852350E+01  0.39669044615E+01  0.12000000000E-01 0.  1.
</event>
<event>
 5   0  0.3564000E+09  0.9118800E+02  0.7818608E-02  0.1180000E+00
       11   -1    0    0    0    0  0.00000000000E+00  0.00000000000E+00  0.39999999673E+01  0.40000000000E+01  0.51109989000E-03 0. -1.
     -623   -1    0    0    0    0  0.00000000000E+00  0.00000000000E+00  0.12525980253E-10  0.17130000000E+03  0.17130000000E+03 0. -1.
       11    1    1    2    0    0 -0.29838978811E-02 -0.66586811985E-03  0.23487904817E-01  0.23691558013E-01  0.51109989000E-03 0. -1.
     -623    1    1    2    0    0  0.36873598856E-02 -0.29634644139E-03  0.22194657943E-03  0.17130000004E+03  0.17130000000E+03 0. -1.
      622    1    1    2    0    0 -0.70346200445E-03  0.96221456124E-03  0.39762901160E+01  0.39763084019E+01  0.12000000000E-01 0. -1.
</event>
<event>
 5   0  0.3564000E+09  0.9118800E+02  0.7818608E-02  0.1180000E+00
       11   -1    0    0    0    0  0.00000000000E+00  0.00000000000E+00  0.39999999673E+01  0.40000000000E+01  0.51109989000E-03 0.  1.
     -623   -1    0    0    0    0  0.00000000000E+00  0.00000000000E+00  0.12525980253E-10  0.17130000000E+03  0.17130000000E+03 0. -1.
       11    1    1    2    0    0  0.53344198451E-03  0.17826633461E-02  0.75211231856E-02  0.77647257127E-02  0.51109989000E-03 0.  1.
     -623    1    1    2    0    0 -0.12058613773E-02 -0.10458218791E-02  0.26173720150E-03  0.17130000001E+03  0.17130000000E+03 0. -1.
      622    1    1    2    0    0  0.67241939284E-03 -0.73684146703E-03  0.39922171070E+01  0.39922352667E+01  0.12000000000E-01 0.  1.
</event>
<event>
 5   0  0.3564000E+09  0.9118800E+02  0.7818608E-02  0.1180000E+00
       11   -1    0    0    0    0  0.00000000000E+00  0.00000000000E+00  0.39999999673E+01  0.40000000000E+01  0.51109989000E-03 0. -1.
     -623   -1    0    0    0    0  0.00000000000E+00  0.00000000000E+00  0.12525980253E-10  0.17130000000E+03  0.17130000000E+03 0. -1.
       11    1    1    2    0    0 -0.11448403061E-01 -0.18927941566E-02  0.10316596975E+01  0.10317250803E+01  0.51109989000E-03 0. -1.
     -623    1    1    2    0    0 -0.87146146600E-02  0.99356242798E-02  0.16949686699E-03  0.17130000051E+03  0.17130000000E+03 0. -1.
      622    1    1    2    0    0  0.20163017720E-01 -0.80428301232E-02  0.29681707730E+01  0.29682744098E+01  0.12000000000E-01 0. -1.
</event>
<event>
 5   0  0.3564000E+09  0.9118800E+02  0.7818608E-02  0.1180000E+00
       11   -1    0    0    0    0  0.00000000000E+00  0.00000000000E+00  0.39999999673E+01  0.40000000000E+01  0.51109989000E-03 0. -1.
     -623   -1    0    0    0    0  0.00000000000E+00  0.00000000000E+00  0.12525980253E-10  0.17130000000E+03  0.17130000000E+03 0. -1.
       11    1    1    2    0    0  0.15441717722E-02 -0.13377267020E-02  0.64248699565E-01  0.64283206190E-01  0.51109989000E-03 0. -1.
     -623    1    1    2    0    0  0.10564142600E-03  0.52518357327E-04  0.53323713327E-04  0.17130000000E+03  0.17130000000E+03 0. -1.
      622    1    1    2    0    0 -0.16498131982E-02  0.12852083447E-02  0.39356979435E+01  0.39357167932E+01  0.12000000000E-01 0. -1.
</event>
<event>
 5   0  0.3564000E+09  0.9118800E+02  0.7818608E-02  0.1180000E+00
       11   -1    0    0    0    0  0.00000000000E+00  0.00000000000E+00  0.39999999673E+01  0.40000000000E+01  0.51109989000E-03 0. -1.
     -623   -1    0    0    0    0  0.00000000000E+00  0.00000000000E+00  0.12525980253E-10  0.17130000000E+03  0.17130000000E+03 0.  1.
       11    1    1    2    0    0  0.59427102322E-03  0.26244750242E-03  0.43713017882E-01  0.43720832474E-01  0.51109989000E-03 0. -1.
     -623    1    1    2    0    0 -0.27703450621E-03  0.42709093542E-03  0.26054478504E-04  0.17130000000E+03  0.17130000000E+03 0.  1.
      622    1    1    2    0    0 -0.31723651568E-03 -0.68953843991E-03  0.39562609143E+01  0.39562791861E+01  0.12000000000E-01 0. -1.
</event>
<event>
 5   0  0.3564000E+09  0.9118800E+02  0.7818608E-02  0.1180000E+00
       11   -1    0    0    0    0  0.00000000000E+00  0.00000000000E+00  0.39999999673E+01  0.40000000000E+01  0.51109989000E-03 0.  1.
     -623   -1    0    0    0    0  0.00000000000E+00  0.00000000000E+00  0.12525980253E-10  0.17130000000E+03  0.17130000000E+03 0. -1.
       11    1    1    2    0    0  0.94801093650E-04  0.10048152258E-02  0.60178939481E+00  0.60179045819E+00  0.51109989000E-03 0.  1.
     -623    1    1    2    0    0  0.67114829313E-03 -0.62404835993E-05  0.22452791663E-04  0.17130000000E+03  0.17130000000E+03 0. -1.
      622    1    1    2    0    0 -0.76594938852E-03 -0.99857474215E-03  0.33981881301E+01  0.33982095508E+01  0.12000000000E-01 0.  1.
</event>
<event>
 5   0  0.3564000E+09  0.9118800E+02  0.7818608E-02  0.1180000E+00
       11   -1    0    0    0    0  0.00000000000E+00  0.00000000000E+00  0.39999999673E+01  0.40000000000E+01  0.51109989000E-03 0.  1.
     -623   -1    0    0    0    0  0.00000000000E+00  0.00000000000E+00  0.12525980253E-10  0.17130000000E+03  0.17130000000E+03 0. -1.
       11    1    1    2    0    0  0.27511099435E-02  0.96224776811E-03  0.18228537654E+00  0.18230939155E+00  0.51109989000E-03 0.  1.
     -623    1    1    2    0    0 -0.42214314830E-02  0.17796117136E-02  0.44170994931E-04  0.17130000006E+03  0.17130000000E+03 0. -1.
      622    1    1    2    0    0  0.14703215395E-02 -0.27418594817E-02  0.38176704198E+01  0.38176905472E+01  0.12000000000E-01 0.  1.
</event>
<event>
 5   0  0.3564000E+09  0.9118800E+02  0.7818608E-02  0.1180000E+00
       11   -1    0    0    0    0  0.00000000000E+00  0.00000000000E+00  0.39999999673E+01  0.40000000000E+01  0.51109989000E-03 0. -1.
     -623   -1    0    0    0    0  0.00000000000E+00  0.00000000000E+00  0.12525980253E-10  0.17130000000E+03  0.17130000000E+03 0. -1.
       11    1    1    2    0    0 -0.10599032812E-02 -0.75330866211E-03  0.26355217098E-01  0.26392225361E-01  0.51109989000E-03 0. -1.
     -623    1    1    2    0    0 -0.85169440385E-04  0.73843099115E-04  0.55318345094E-04  0.17130000000E+03  0.17130000000E+03 0. -1.
      622    1    1    2    0    0  0.11450727216E-02  0.67946556300E-03  0.39735894319E+01  0.39736077746E+01  0.12000000000E-01 0. -1.
</event>
<event>
 5   0  0.3564000E+09  0.9118800E+02  0.7818608E-02  0.1180000E+00
       11   -1    0    0    0    0  0.00000000000E+00  0.00000000000E+00  0.39999999673E+01  0.40000000000E+01  0.51109989000E-03 0. -1.
     -623   -1    0    0    0    0  0.00000000000E+00  0.00000000000E+00  0.12525980253E-10  0.17130000000E+03  0.17130000000E+03 0.  1.
       11    1    1    2    0    0  0.16178604124E-03 -0.54901936668E-03  0.98572190391E-02  0.98870413139E-02  0.51109989000E-03 0. -1.
     -623    1    1    2    0    0  0.46870912714E-03 -0.24194047712E-03  0.47963306526E-04  0.17130000000E+03  0.17130000000E+03 0.  1.
      622    1    1    2    0    0 -0.63049516838E-03  0.79095984381E-03  0.39900947850E+01  0.39901129579E+01  0.12000000000E-01 0. -1.
</event>
<event>
 5   0  0.3564000E+09  0.9118800E+02  0.7818608E-02  0.1180000E+00
       11   -1    0    0    0    0  0.00000000000E+00  0.00000000000E+00  0.39999999673E+01  0.40000000000E+01  0.51109989000E-03 0. -1.
     -623   -1    0    0    0    0  0.00000000000E+00  0.00000000000E+00  0.12525980253E-10  0.17130000000E+03  0.17130000000E+03 0.  1.
       11    1    1    2    0    0 -0.13162565260E-02 -0.63421259464E-02  0.22365051255E+00  0.22374487275E+00  0.51109989000E-03 0. -1.
     -623    1    1    2    0    0 -0.47760715212E-03  0.54043970201E-03  0.11827851351E-03  0.17130000000E+03  0.17130000000E+03 0.  1.
      622    1    1    2    0    0  0.17938636780E-02  0.58016862445E-02  0.37762311760E+01  0.37762551254E+01  0.12000000000E-01 0. -1.
</event>
<event>
 5   0  0.3564000E+09  0.9118800E+02  0.7818608E-02  0.1180000E+00
       11   -1    0    0    0    0  0.00000000000E+00  0.00000000000E+00  0.39999999673E+01  0.40000000000E+01  0.51109989000E-03 0.  1.
     -623   -1    0    0    0    0  0.00000000000E+00  0.00000000000E+00  0.12525980253E-10  0.17130000000E+03  0.17130000000E+03 0. -1.
       11    1    1    2    0    0  0.34094974168E-03  0.43770964272E-03  0.25404397508E-01  0.25415595016E-01  0.51109989000E-03 0.  1.
     -623    1    1    2    0    0  0.15974264101E-04 -0.30090139714E-04  0.29316945237E-04  0.17130000000E+03  0.17130000000E+03 0. -1.
      622    1    1    2    0    0 -0.35692400578E-03 -0.40761950301E-03  0.39745662529E+01  0.39745844050E+01  0.12000000000E-01 0.  1.
</event>
<event>
 5   0  0.3564000E+09  0.9118800E+02  0.7818608E-02  0.1180000E+00
       11   -1    0    0    0    0  0.00000000000E+00  0.00000000000E+00  0.39999999673E+01  0.40000000000E+01  0.51109989000E-03 0. -1.
     -623   -1    0    0    0    0  0.00000000000E+00  0.00000000000E+00  0.12525980253E-10  0.17130000000E+03  0.17130000000E+03 0.  1.
       11    1    1    2    0    0 -0.33797722226E-02 -0.13567424467E-02  0.13566773993E+00  0.13571757620E+00  0.51109989000E-03 0. -1.
     -623    1    1    2    0    0  0.57828868738E-02 -0.10957423393E-02  0.70062452243E-04  0.17130000010E+03  0.17130000000E+03 0.  1.
      622    1    1    2    0    0 -0.24031146512E-02  0.24524847860E-02  0.38642621650E+01  0.38642823227E+01  0.12000000000E-01 0. -1.
</event>
<event>
 5   0  0.3564000E+09  0.9118800E+02  0.7818608E-02  0.1180000E+00
       11   -1    0    0    0    0  0.00000000000E+00  0.00000000000E+00  0.39999999673E+01  0.40000000000E+01  0.51109989000E-03 0. -1.
     -623   -1    0    0    0    0  0.00000000000E+00  0.00000000000E+00  0.12525980253E-10  0.17130000000E+03  0.17130000000E+03 0.  1.
       11    1    1    2    0    0  0.18692415120E-02 -0.22474895985E-03  0.53449174876E-01  0.53484765051E-01  0.51109989000E-03 0. -1.
     -623    1    1    2    0    0  0.27372365249E-04 -0.88119128917E-03  0.54414497321E-04  0.17130000000E+03  0.17130000000E+03 0.  1.
      622    1    1    2    0    0 -0.18966138772E-02  0.11059402490E-02  0.39464963780E+01  0.39465152327E+01  0.12000000000E-01 0. -1.
</event>
<event>
 5   0  0.3564000E+09  0.9118800E+02  0.7818608E-02  0.1180000E+00
       11   -1    0    0    0    0  0.00000000000E+00  0.00000000000E+00  0.39999999673E+01  0.40000000000E+01  0.51109989000E-03 0. -1.
     -623   -1    0    0    0    0  0.00000000000E+00  0.00000000000E+00  0.12525980253E-10  0.17130000000E+03  0.17130000000E+03 0.  1.
       11    1    1    2    0    0  0.12085550512E-02  0.11891210269E-03  0.17213608688E+00  0.17214112923E+00  0.51109989000E-03 0. -1.
     -623    1    1    2    0    0  0.10087180816E-02  0.38120003311E-02  0.26525172666E-04  0.17130000005E+03  0.17130000000E+03 0.  1.
      622    1    1    2    0    0 -0.22172731328E-02 -0.39309124338E-02  0.38278373553E+01  0.38278588254E+01  0.12000000000E-01 0. -1.
</event>
<event>
 5   0  0.3564000E+09  0.9118800E+02  0.7818608E-02  0.1180000E+00
       11   -1    0    0    0    0  0.00000000000E+00  0.00000000000E+00  0.39999999673E+01  0.40000000000E+01  0.51109989000E-03 0. -1.
     -623   -1    0    0    0    0  0.00000000000E+00  0.00000000000E+00  0.12525980253E-10  0.17130000000E+03  0.17130000000E+03 0.  1.
       11    1    1    2    0    0 -0.37040918924E-03 -0.42304365451E-02  0.11091334678E+00  0.11099579051E+00  0.51109989000E-03 0. -1.
     -623    1    1    2    0    0 -0.45009651577E-02 -0.11588309475E-02  0.10777308982E-03  0.17130000006E+03  0.17130000000E+03 0.  1.
      622    1    1    2    0    0  0.48713743469E-02  0.53892674926E-02  0.38889788475E+01  0.38890041464E+01  0.12000000000E-01 0. -1.
</event>
<event>
 5   0  0.3564000E+09  0.9118800E+02  0.7818608E-02  0.1180000E+00
       11   -1    0    0    0    0  0.00000000000E+00  0.00000000000E+00  0.39999999673E+01  0.40000000000E+01  0.51109989000E-03 0.  1.
     -623   -1    0    0    0    0  0.00000000000E+00  0.00000000000E+00  0.12525980253E-10  0.17130000000E+03  0.17130000000E+03 0.  1.
       11    1    1    2    0    0 -0.12783684179E-02  0.16251376993E-03  0.30476587624E-02  0.33481462882E-02  0.51109989000E-03 0.  1.
     -623    1    1    2    0    0  0.69241891341E-03  0.10375925123E-02  0.31869798050E-03  0.17130000000E+03  0.17130000000E+03 0.  1.
      622    1    1    2    0    0  0.58594950419E-03 -0.12001062827E-02  0.39966336124E+01  0.39966518507E+01  0.12000000000E-01 0.  1.
</event>
<event>
 5   0  0.3564000E+09  0.9118800E+02  0.7818608E-02  0.1180000E+00
       11   -1    0    0    0    0  0.00000000000E+00  0.00000000000E+00  0.39999999673E+01  0.40000000000E+01  0.51109989000E-03 0. -1.
     -623   -1    0    0    0    0  0.00000000000E+00  0.00000000000E+00  0.12525980253E-10  0.17130000000E+03  0.17130000000E+03 0.  1.
       11    1    1    2    0    0 -0.25206176686E-02  0.10243771001E-01  0.47607302383E+00  0.47619016538E+00  0.51109989000E-03 0. -1.
     -623    1    1    2    0    0  0.20746897957E-02 -0.39584905778E-02  0.14323341173E-03  0.17130000006E+03  0.17130000000E+03 0.  1.
      622    1    1    2    0    0  0.44592787348E-03 -0.62852804244E-02  0.35237837090E+01  0.35238097751E+01  0.12000000000E-01 0. -1.
</event>
<event>
 5   0  0.3564000E+09  0.9118800E+02  0.7818608E-02  0.1180000E+00
       11   -1    0    0    0    0  0.00000000000E+00  0.00000000000E+00  0.39999999673E+01  0.40000000000E+01  0.51109989000E-03 0.  1.
     -623   -1    0    0    0    0  0.00000000000E+00  0.00000000000E+00  0.12525980253E-10  0.17130000000E+03  0.17130000000E+03 0.  1.
       11    1    1    2    0    0  0.50199272672E-02  0.66276807235E-02  0.89571551162E+00  0.89575424353E+00  0.51109989000E-03 0.  1.
     -623    1    1    2    0    0  0.71915452220E-02 -0.13577812496E-01  0.94381995328E-04  0.17130000069E+03  0.17130000000E+03 0.  1.
      622    1    1    2    0    0 -0.12211472489E-01  0.69501317728E-02  0.31041900737E+01  0.31042450674E+01  0.12000000000E-01 0.  1.
</event>
<event>
 5   0  0.3564000E+09  0.9118800E+02  0.7818608E-02  0.1180000E+00
       11   -1    0    0    0    0  0.00000000000E+00  0.00000000000E+00  0.39999999673E+01  0.40000000000E+01  0.51109989000E-03 0. -1.
     -623   -1    0    0    0    0  0.00000000000E+00  0.00000000000E+00  0.12525980253E-10  0.17130000000E+03  0.17130000000E+03 0.  1.
       11    1    1    2    0    0 -0.26068841673E-02  0.11039321971E-02  0.12828776660E+00  0.12832001711E+00  0.51109989000E-03 0. -1.
     -623    1    1    2    0    0 -0.12183061785E-02 -0.13441832831E-02  0.52721201314E-04  0.17130000001E+03  0.17130000000E+03 0.  1.
      622    1    1    2    0    0  0.38251903458E-02  0.24025108600E-03  0.38716594796E+01  0.38716799733E+01  0.12000000000E-01 0. -1.
</event>
<event>
 5   0  0.3564000E+09  0.9118800E+02  0.7818608E-02  0.1180000E+00
       11   -1    0    0    0    0  0.00000000000E+00  0.00000000000E+00  0.39999999673E+01  0.40000000000E+01  0.51109989000E-03 0. -1.
     -623   -1    0    0    0    0  0.00000000000E+00  0.00000000000E+00  0.12525980253E-10  0.17130000000E+03  0.17130000000E+03 0.  1.
       11    1    1    2    0    0  0.24091921215E-02  0.19800062374E-02  0.54187076814E-01  0.54279141003E-01  0.51109989000E-03 0. -1.
     -623    1    1    2    0    0 -0.28203936379E-03  0.35027228467E-03  0.11154133103E-03  0.17130000000E+03  0.17130000000E+03 0.  1.
      622    1    1    2    0    0 -0.21271527575E-02 -0.23302785223E-02  0.39457013523E+01  0.39457208614E+01  0.12000000000E-01 0. -1.
</event>
<event>
 5   0  0.3564000E+09  0.9118800E+02  0.7818608E-02  0.1180000E+00
       11   -1    0    0    0    0  0.00000000000E+00  0.00000000000E+00  0.39999999673E+01  0.40000000000E+01  0.51109989000E-03 0. -1.
     -623   -1    0    0    0    0  0.00000000000E+00  0.00000000000E+00  0.12525980253E-10  0.17130000000E+03  0.17130000000E+03 0. -1.
       11    1    1    2    0    0  0.30761400418E-03  0.51278668859E-03  0.70914963250E-01  0.70919326086E-01  0.51109989000E-03 0. -1.
     -623    1    1    2    0    0 -0.24091539749E-03  0.26023593005E-03  0.22732114184E-04  0.17130000000E+03  0.17130000000E+03 0. -1.
      622    1    1    2    0    0 -0.66698606604E-04 -0.77302261873E-03  0.39290622734E+01  0.39290806749E+01  0.12000000000E-01 0. -1.
</event>
<event>
 5   0  0.3564000E+09  0.9118800E+02  0.7818608E-02  0.1180000E+00
       11   -1    0    0    0    0  0.00000000000E+00  0.00000000000E+00  0.39999999673E+01  0.40000000000E+01  0.51109989000E-03 0.  1.
     -623   -1    0    0    0    0  0.00000000000E+00  0.00000000000E+00  0.12525980253E-10  0.17130000000E+03  0.17130000000E+03 0. -1.
       11    1    1    2    0    0 -0.23222723509E-04 -0.62182546093E-02  0.71911610914E+00  0.71914317551E+00  0.51109989000E-03 0.  1.
     -623    1    1    2    0    0  0.36832942239E-04  0.36992621581E-04  0.54802244594E-04  0.17130000000E+03  0.17130000000E+03 0. -1.
      622    1    1    2    0    0 -0.13610218742E-04  0.61812619877E-02  0.32808290572E+01  0.32808568257E+01  0.12000000000E-01 0.  1.
</event>
<event>
 5   0  0.3564000E+09  0.9118800E+02  0.7818608E-02  0.1180000E+00
       11   -1    0    0    0    0  0.00000000000E+00  0.00000000000E+00  0.39999999673E+01  0.40000000000E+01  0.51109989000E-03 0.  1.
     -623   -1    0    0    0    0  0.00000000000E+00  0.00000000000E+00  0.12525980253E-10  0.17130000000E+03  0.17130000000E+03 0. -1.
       11    1    1    2    0    0  0.12398030398E-01  0.16549985116E-02  0.45632948058E+00  0.45650115690E+00  0.51109989000E-03 0.  1.
     -623    1    1    2    0    0 -0.16084352476E-01 -0.29885425610E-02  0.19491233803E-03  0.17130000078E+03  0.17130000000E+03 0. -1.
      622    1    1    2    0    0  0.36863220780E-02  0.13335440494E-02  0.35434755744E+01  0.35434980618E+01  0.12000000000E-01 0.  1.
</event>
<event>
 5   0  0.3564000E+09  0.9118800E+02  0.7818608E-02  0.1180000E+00
       11   -1    0    0    0    0  0.00000000000E+00  0.00000000000E+00  0.39999999673E+01  0.40000000000E+01  0.51109989000E-03 0. -1.
     -623   -1    0    0    0    0  0.00000000000E+00  0.00000000000E+00  0.12525980253E-10  0.17130000000E+03  0.17130000000E+03 0.  1.
       11    1    1    2    0    0  0.10409732760E-01  0.18303362565E-02  0.60065161906E+00  0.60074482217E+00  0.51109989000E-03 0. -1.
     -623    1    1    2    0    0  0.12693174220E-02 -0.28561554836E-02  0.13459843858E-03  0.17130000003E+03  0.17130000000E+03 0.  1.
      622    1    1    2    0    0 -0.11679050183E-01  0.10258192292E-02  0.33992137529E+01  0.33992551523E+01  0.12000000000E-01 0. -1.
</event>
<event>
 5   0  0.3564000E+09  0.9118800E+02  0.7818608E-02  0.1180000E+00
       11   -1    0    0    0    0  0.00000000000E+00  0.00000000000E+00  0.39999999673E+01  0.40000000000E+01  0.51109989000E-03 0. -1.
     -623   -1    0    0    0    0  0.00000000000E+00  0.00000000000E+00  0.12525980253E-10  0.17130000000E+03  0.17130000000E+03 0.  1.
       11    1    1    2    0    0 -0.95094238717E-03 -0.23511819210E-02  0.28755452623E-01  0.28871605887E-01  0.51109989000E-03 0. -1.
     -623    1    1    2    0    0 -0.12817819220E-02 -0.58456040638E-03  0.13597020551E-03  0.17130000001E+03  0.17130000000E+03 0.  1.
      622    1    1    2    0    0  0.22327243084E-02  0.29357423271E-02  0.39711085422E+01  0.39711283859E+01  0.12000000000E-01 0. -1.
</event>
<event>
 5   0  0.3564000E+09  0.9118800E+02  0.7818608E-02  0.1180000E+00
       11   -1    0    0    0    0  0.00000000000E+00  0.00000000000E+00  0.39999999673E+01  0.40000000000E+01  0.51109989000E-03 0.  1.
     -623   -1    0    0    0    0  0.00000000000E+00  0.00000000000E+00  0.12525980253E-10  0.17130000000E+03  0.17130000000E+03 0.  1.
       11    1    1    2    0    0  0.36241343908E-02  0.48800471543E-02  0.25874021995E+00  0.25881211690E+00  0.51109989000E-03 0.  1.
     -623    1    1    2    0    0  0.40847885796E-03 -0.17543224215E-03  0.96241656662E-04  0.17130000000E+03  0.17130000000E+03 0.  1.
      622    1    1    2    0    0 -0.40326132485E-02 -0.47046149122E-02  0.37411635037E+01  0.37411878804E+01  0.12000000000E-01 0.  1.
</event>
<event>
 5   0  0.3564000E+09  0.9118800E+02  0.7818608E-02  0.1180000E+00
       11   -1    0    0    0    0  0.00000000000E+00  0.00000000000E+00  0.39999999673E+01  0.40000000000E+01  0.51109989000E-03 0.  1.
     -623   -1    0    0    0    0  0.00000000000E+00  0.00000000000E+00  0.12525980253E-10  0.17130000000E+03  0.17130000000E+03 0. -1.
       11    1    1    2    0    0  0.23313149829E-02 -0.86323729646E-02  0.10222213310E+00  0.10261373499E+00  0.51109989000E-03 0.  1.
     -623    1    1    2    0    0  0.14216768445E-02  0.67890593074E-02  0.41242703834E-03  0.17130000014E+03  0.17130000000E+03 0. -1.
      622    1    1    2    0    0 -0.37529918274E-02  0.18433136572E-02  0.38973654072E+01  0.38973861241E+01  0.12000000000E-01 0.  1.
</event>
<event>
 5   0  0.3564000E+09  0.9118800E+02  0.7818608E-02  0.1180000E+00
       11   -1    0    0    0    0  0.00000000000E+00  0.00000000000E+00  0.39999999673E+01  0.40000000000E+01  0.51109989000E-03 0. -1.
     -623   -1    0    0    0    0  0.00000000000E+00  0.00000000000E+00  0.12525980253E-10  0.17130000000E+03  0.17130000000E+03 0.  1.
       11    1    1    2    0    0  0.29861630905E-03 -0.70577911254E-03  0.16742983889E+00  0.16743237282E+00  0.51109989000E-03 0. -1.
     -623    1    1    2    0    0  0.61266472029E-03 -0.96636868261E-04  0.21481165855E-04  0.17130000000E+03  0.17130000000E+03 0.  1.
      622    1    1    2    0    0 -0.91128103150E-03  0.80241598114E-03  0.38325486614E+01  0.38325676402E+01  0.12000000000E-01 0. -1.
</event>
<event>
 5   0  0.3564000E+09  0.9118800E+02  0.7818608E-02  0.1180000E+00
       11   -1    0    0    0    0  0.00000000000E+00  0.00000000000E+00  0.39999999673E+01  0.40000000000E+01  0.51109989000E-03 0.  1.
     -623   -1    0    0    0    0  0.00000000000E+00  0.00000000000E+00  0.12525980253E-10  0.17130000000E+03  0.17130000000E+03 0.  1.
       11    1    1    2    0    0 -0.14378288133E-02  0.12630888202E-03  0.12858782890E+00  0.12859694502E+00  0.51109989000E-03 0.  1.
     -623    1    1    2    0    0  0.65894296525E-04  0.74500029747E-04  0.27929769685E-04  0.17130000000E+03  0.17130000000E+03 0.  1.
      622    1    1    2    0    0  0.13719345166E-02 -0.20080891202E-03  0.38713842223E+01  0.38714030685E+01  0.12000000000E-01 0.  1.
</event>
<event>
 5   0  0.3564000E+09  0.9118800E+02  0.7818608E-02  0.1180000E+00
       11   -1    0    0    0    0  0.00000000000E+00  0.00000000000E+00  0.39999999673E+01  0.40000000000E+01  0.51109989000E-03 0.  1.
     -623   -1    0    0    0    0  0.00000000000E+00  0.00000000000E+00  0.12525980253E-10  0.17130000000E+03  0.17130000000E+03 0. -1.
       11    1    1    2    0    0  0.71819641964E-03 -0.13123983011E-02  0.29573948572E-01  0.29616175490E-01  0.51109989000E-03 0.  1.
     -623    1    1    2    0    0 -0.63916338749E-03  0.32747059691E-03  0.60453054412E-04  0.17130000000E+03  0.17130000000E+03 0. -1.
      622    1    1    2    0    0 -0.79033032144E-04  0.98492770421E-03  0.39703655657E+01  0.39703838230E+01  0.12000000000E-01 0.  1.
</event>
<event>
 5   0  0.3564000E+09  0.9118800E+02  0.7818608E-02  0.1180000E+00
       11   -1    0    0    0    0  0.00000000000E+00  0.00000000000E+00  0.39999999673E+01  0.40000000000E+01  0.51109989000E-03 0. -1.
     -623   -1    0    0    0    0  0.00000000000E+00  0.00000000000E+00  0.12525980253E-10  0.17130000000E+03  0.17130000000E+03 0. -1.
       11    1    1    2    0    0 -0.50241697384E-03  0.28988342700E-02  0.39685230136E-01  0.39797416713E-01  0.51109989000E-03 0. -1.
     -623    1    1    2    0    0  0.51209133943E-03 -0.33579140800E-04  0.13137222556E-03  0.17130000000E+03  0.17130000000E+03 0. -1.
      622    1    1    2    0    0 -0.96743657516E-05 -0.28652551292E-02  0.39601833662E+01  0.39602025837E+01  0.12000000000E-01 0. -1.
</event>
<event>
 5   0  0.3564000E+09  0.9118800E+02  0.7818608E-02  0.1180000E+00
       11   -1    0    0    0    0  0.00000000000E+00  0.00000000000E+00  0.39999999673E+01  0.40000000000E+01  0.51109989000E-03 0. -1.
     -623   -1    0    0    0    0  0.00000000000E+00  0.00000000000E+00  0.12525980253E-10  0.17130000000E+03  0.17130000000E+03 0. -1.
       11    1    1    2    0    0  0.16741935001E-03 -0.37813353144E-03  0.37132731167E+00  0.37132789369E+00  0.51109989000E-03 0. -1.
     -623    1    1    2    0    0 -0.64597492259E-05  0.11425871505E-03  0.20404603007E-04  0.17130000000E+03  0.17130000000E+03 0. -1.
      622    1    1    2    0    0 -0.16095960075E-03  0.26387481576E-03  0.36286522729E+01  0.36286721281E+01  0.12000000000E-01 0. -1.
</event>
<event>
 5   0  0.3564000E+09  0.9118800E+02  0.7818608E-02  0.1180000E+00
       11   -1    0    0    0    0  0.00000000000E+00  0.00000000000E+00  0.39999999673E+01  0.40000000000E+01  0.51109989000E-03 0.  1.
     -623   -1    0    0    0    0  0.00000000000E+00  0.00000000000E+00  0.12525980253E-10  0.17130000000E+03  0.17130000000E+03 0. -1.
       11    1    1    2    0    0 -0.28792696796E-02 -0.24142702299E-03  0.42053779943E-02  0.51278560888E-02  0.51109989000E-03 0.  1.
     -623    1    1    2    0    0 -0.10083910207E-02 -0.11158149746E-02  0.94260002779E-03  0.17130000001E+03  0.17130000000E+03 0. -1.
      622    1    1    2    0    0  0.38876607003E-02  0.13572419976E-02  0.39948519895E+01  0.39948721349E+01  0.12000000000E-01 0.  1.
</event>
<event>
 5   0  0.3564000E+09  0.9118800E+02  0.7818608E-02  0.1180000E+00
       11   -1    0    0    0    0  0.00000000000E+00  0.00000000000E+00  0.39999999673E+01  0.40000000000E+01  0.51109989000E-03 0. -1.
     -623   -1    0    0    0    0  0.00000000000E+00  0.00000000000E+00  0.12525980253E-10  0.17130000000E+03  0.17130000000E+03 0. -1.
       11    1    1    2    0    0 -0.19480342444E-02  0.39332373471E-02  0.14370585858E+00  0.14377378135E+00  0.51109989000E-03 0. -1.
     -623    1    1    2    0    0 -0.43705630546E-03 -0.54105125761E-03  0.88792320632E-04  0.17130000000E+03  0.17130000000E+03 0. -1.
      622    1    1    2    0    0  0.23850905498E-02 -0.33921860894E-02  0.38562053165E+01  0.38562262172E+01  0.12000000000E-01 0. -1.
</event>
<event>
 5   0  0.3564000E+09  0.9118800E+02  0.7818608E-02  0.1180000E+00
       11   -1    0    0    0    0  0.00000000000E+00  0.00000000000E+00  0.39999999673E+01  0.40000000000E+01  0.51109989000E-03 0.  1.
     -623   -1    0    0    0    0  0.00000000000E+00  0.00000000000E+00  0.12525980253E-10  0.17130000000E+03  0.17130000000E+03 0.  1.
       11    1    1    2    0    0  0.77897813840E-02 -0.30356392483E-02  0.71732687912E+00  0.71737577916E+00  0.51109989000E-03 0.  1.
     -623    1    1    2    0    0 -0.63770201579E-02  0.16558439419E-02  0.71521865284E-04  0.17130000013E+03  0.17130000000E+03 0.  1.
      622    1    1    2    0    0 -0.14127612261E-02  0.13797953064E-02  0.32826015664E+01  0.32826240941E+01  0.12000000000E-01 0.  0.
</event>
<event>
 5   0  0.3564000E+09  0.9118800E+02  0.7818608E-02  0.1180000E+00
       11   -1    0    0    0    0  0.00000000000E+00  0.00000000000E+00  0.39999999673E+01  0.40000000000E+01  0.51109989000E-03 0.  1.
     -623   -1    0    0    0    0  0.00000000000E+00  0.00000000000E+00  0.12525980253E-10  0.17130000000E+03  0.17130000000E+03 0. -1.
       11    1    1    2    0    0 -0.65197581528E-02 -0.27009628351E-03  0.14287692823E+00  0.14302677386E+00  0.51109989000E-03 0.  1.
     -623    1    1    2    0    0  0.32557439881E-02 -0.24429841596E-02  0.17086431157E-03  0.17130000005E+03  0.17130000000E+03 0. -1.
      622    1    1    2    0    0  0.32640141636E-02  0.27130804440E-02  0.38569521763E+01  0.38569731791E+01  0.12000000000E-01 0.  1.
</event>
<event>
 5   0  0.3564000E+09  0.9118800E+02  0.7818608E-02  0.1180000E+00
       11   -1    0    0    0    0  0.00000000000E+00  0.00000000000E+00  0.39999999673E+01  0.40000000000E+01  0.51109989000E-03 0. -1.
     -623   -1    0    0    0    0  0.00000000000E+00  0.00000000000E+00  0.12525980253E-10  0.17130000000E+03  0.17130000000E+03 0. -1.
       11    1    1    2    0    0  0.17846471317E-02  0.11912384567E-02  0.66161102795E-01  0.66197860691E-01  0.51109989000E-03 0. -1.
     -623    1    1    2    0    0  0.26127866083E-03 -0.74288048012E-04  0.55719033381E-04  0.17130000000E+03  0.17130000000E+03 0. -1.
      622    1    1    2    0    0 -0.20459257926E-02 -0.11169504087E-02  0.39337831455E+01  0.39338021391E+01  0.12000000000E-01 0. -1.
</event>
<event>
 5   0  0.3564000E+09  0.9118800E+02  0.7818608E-02  0.1180000E+00
       11   -1    0    0    0    0  0.00000000000E+00  0.00000000000E+00  0.39999999673E+01  0.40000000000E+01  0.51109989000E-03 0. -1.
     -623   -1    0    0    0    0  0.00000000000E+00  0.00000000000E+00  0.12525980253E-10  0.17130000000E+03  0.17130000000E+03 0.  1.
       11    1    1    2    0    0  0.43000480548E-03  0.26733996481E-03  0.66658181691E+00  0.66658220516E+00  0.51109989000E-03 0. -1.
     -623    1    1    2    0    0  0.34257521113E-03  0.95418259170E-03  0.22271475518E-04  0.17130000000E+03  0.17130000000E+03 0.  1.
      622    1    1    2    0    0 -0.77258001649E-03 -0.12215225562E-02  0.33333958776E+01  0.33334177905E+01  0.12000000000E-01 0. -1.
</event>
<event>
 5   0  0.3564000E+09  0.9118800E+02  0.7818608E-02  0.1180000E+00
       11   -1    0    0    0    0  0.00000000000E+00  0.00000000000E+00  0.39999999673E+01  0.40000000000E+01  0.51109989000E-03 0.  1.
     -623   -1    0    0    0    0  0.00000000000E+00  0.00000000000E+00  0.12525980253E-10  0.17130000000E+03  0.17130000000E+03 0.  1.
       11    1    1    2    0    0 -0.19927511750E-02  0.88793031891E-03  0.80995296297E-01  0.81026284143E-01  0.51109989000E-03 0.  1.
     -623    1    1    2    0    0  0.27391535466E-02  0.17109402007E-03  0.49563569385E-04  0.17130000002E+03  0.17130000000E+03 0.  1.
      622    1    1    2    0    0 -0.74640237160E-03 -0.10590243390E-02  0.39189551075E+01  0.39189736939E+01  0.12000000000E-01 0.  1.
</event>
<event>
 5   0  0.3564000E+09  0.9118800E+02  0.7818608E-02  0.1180000E+00
       11   -1    0    0    0    0  0.00000000000E+00  0.00000000000E+00  0.39999999673E+01  0.40000000000E+01  0.51109989000E-03 0.  1.
     -623   -1    0    0    0    0  0.00000000000E+00  0.00000000000E+00  0.12525980253E-10  0.17130000000E+03  0.17130000000E+03 0. -1.
       11    1    1    2    0    0 -0.35474839091E-02 -0.37844429689E-01  0.27913507634E+00  0.28171162128E+00  0.51109989000E-03 0.  1.
     -623    1    1    2    0    0 -0.47815662453E-02  0.33430660784E-01  0.26111732855E-02  0.17130000335E+03  0.17130000000E+03 0. -1.
      622    1    1    2    0    0  0.83290501544E-02  0.44137689048E-02  0.37182537177E+01  0.37182850299E+01  0.12000000000E-01 0.  1.
</event>
<event>
 5   0  0.3564000E+09  0.9118800E+02  0.7818608E-02  0.1180000E+00
       11   -1    0    0    0    0  0.00000000000E+00  0.00000000000E+00  0.39999999673E+01  0.40000000000E+01  0.51109989000E-03 0. -1.
     -623   -1    0    0    0    0  0.00000000000E+00  0.00000000000E+00  0.12525980253E-10  0.17130000000E+03  0.17130000000E+03 0.  1.
       11    1    1    2    0    0  0.12238798221E-01  0.26708126669E-02  0.11476952899E+01  0.11477637654E+01  0.51109989000E-03 0. -1.
     -623    1    1    2    0    0 -0.11551406755E-01  0.17920483051E-03  0.95582642298E-04  0.17130000039E+03  0.17130000000E+03 0.  1.
      622    1    1    2    0    0 -0.68739146661E-03 -0.28500174974E-02  0.28522090947E+01  0.28522358449E+01  0.12000000000E-01 0. -1.
</event>
<event>
 5   0  0.3564000E+09  0.9118800E+02  0.7818608E-02  0.1180000E+00
       11   -1    0    0    0    0  0.00000000000E+00  0.00000000000E+00  0.39999999673E+01  0.40000000000E+01  0.51109989000E-03 0. -1.
     -623   -1    0    0    0    0  0.00000000000E+00  0.00000000000E+00  0.12525980253E-10  0.17130000000E+03  0.17130000000E+03 0. -1.
       11    1    1    2    0    0 -0.52181475343E-03  0.12906420871E-02  0.20781719538E-01  0.20834565893E-01  0.51109989000E-03 0. -1.
     -623    1    1    2    0    0 -0.29263131793E-03 -0.35541250451E-03  0.71101889671E-04  0.17130000000E+03  0.17130000000E+03 0. -1.
      622    1    1    2    0    0  0.81444607136E-03 -0.93522958257E-03  0.39791471459E+01  0.39791654335E+01  0.12000000000E-01 0. -1.
</event>
<event>
 5   0  0.3564000E+09  0.9118800E+02  0.7818608E-02  0.1180000E+00
       11   -1    0    0    0    0  0.00000000000E+00  0.00000000000E+00  0.39999999673E+01  0.40000000000E+01  0.51109989000E-03 0.  1.
     -623   -1    0    0    0    0  0.00000000000E+00  0.00000000000E+00  0.12525980253E-10  0.17130000000E+03  0.17130000000E+03 0. -1.
       11    1    1    2    0    0  0.12029235619E-02 -0.45004167623E-02  0.56874308445E-01  0.57067056678E-01  0.51109989000E-03 0.  1.
     -623    1    1    2    0    0 -0.24004327578E-02  0.60208001665E-02  0.21157388956E-03  0.17130000012E+03  0.17130000000E+03 0. -1.
      622    1    1    2    0    0  0.11975091959E-02 -0.15203834042E-02  0.39429140850E+01  0.39429328206E+01  0.12000000000E-01 0.  1.
</event>
<event>
 5   0  0.3564000E+09  0.9118800E+02  0.7818608E-02  0.1180000E+00
       11   -1    0    0    0    0  0.00000000000E+00  0.00000000000E+00  0.39999999673E+01  0.40000000000E+01  0.51109989000E-03 0.  1.
     -623   -1    0    0    0    0  0.00000000000E+00  0.00000000000E+00  0.12525980253E-10  0.17130000000E+03  0.17130000000E+03 0. -1.
       11    1    1    2    0    0 -0.12906645537E-04 -0.16427160618E-02  0.11170809313E+00  0.11172134073E+00  0.51109989000E-03 0.  1.
     -623    1    1    2    0    0 -0.10495188696E-03  0.11417137510E-03  0.32034500293E-04  0.17130000000E+03  0.17130000000E+03 0. -1.
      622    1    1    2    0    0  0.11785853250E-03  0.15285446867E-02  0.38882598397E+01  0.38882786592E+01  0.12000000000E-01 0.  1.
</event>
<event>
 5   0  0.3564000E+09  0.9118800E+02  0.7818608E-02  0.1180000E+00
       11   -1    0    0    0    0  0.00000000000E+00  0.00000000000E+00  0.39999999673E+01  0.40000000000E+01  0.51109989000E-03 0.  1.
     -623   -1    0    0    0    0  0.00000000000E+00  0.00000000000E+00  0.12525980253E-10  0.17130000000E+03  0.17130000000E+03 0. -1.
       11    1    1    2    0    0 -0.11976004024E-03  0.11464968912E-02  0.16917266929E-01  0.16964195851E-01  0.51109989000E-03 0.  1.
     -623    1    1    2    0    0  0.13240004639E-02 -0.10871819226E-02  0.65164054933E-04  0.17130000001E+03  0.17130000000E+03 0. -1.
      622    1    1    2    0    0 -0.12042404237E-02 -0.59314968561E-04  0.39830175364E+01  0.39830357956E+01  0.12000000000E-01 0.  1.
</event>
<event>
 5   0  0.3564000E+09  0.9118800E+02  0.7818608E-02  0.1180000E+00
       11   -1    0    0    0    0  0.00000000000E+00  0.00000000000E+00  0.39999999673E+01  0.40000000000E+01  0.51109989000E-03 0.  1.
     -623   -1    0    0    0    0  0.00000000000E+00  0.00000000000E+00  0.12525980253E-10  0.17130000000E+03  0.17130000000E+03 0.  1.
       11    1    1    2    0    0  0.12050093829E-03 -0.87300283435E-04  0.18015722738E-02  0.18785706191E-02  0.51109989000E-03 0.  1.
     -623    1    1    2    0    0 -0.22681429814E-03  0.31049807271E-03  0.94982304846E-04  0.17130000000E+03  0.17130000000E+03 0.  1.
      622    1    1    2    0    0  0.10631335968E-03 -0.22319778905E-03  0.39981034098E+01  0.39981214260E+01  0.12000000000E-01 0.  1.
</event>
<event>
 5   0  0.3564000E+09  0.9118800E+02  0.7818608E-02  0.1180000E+00
       11   -1    0    0    0    0  0.00000000000E+00  0.00000000000E+00  0.39999999673E+01  0.40000000000E+01  0.51109989000E-03 0.  1.
     -623   -1    0    0    0    0  0.00000000000E+00  0.00000000000E+00  0.12525980253E-10  0.17130000000E+03  0.17130000000E+03 0.  1.
       11    1    1    2    0    0  0.35556622339E-02 -0.73905648287E-02  0.16655913096E+00  0.16676171176E+00  0.51109989000E-03 0.  1.
     -623    1    1    2    0    0 -0.97658317116E-03 -0.24860564497E-02  0.23494390734E-03  0.17130000002E+03  0.17130000000E+03 0.  1.
      622    1    1    2    0    0 -0.25790790628E-02  0.98766212783E-02  0.38332058925E+01  0.38332382673E+01  0.12000000000E-01 0.  1.
</event>
<event>
 5   0  0.3564000E+09  0.9118800E+02  0.7818608E-02  0.1180000E+00
       11   -1    0    0    0    0  0.00000000000E+00  0.00000000000E+00  0.39999999673E+01  0.40000000000E+01  0.51109989000E-03 0.  1.
     -623   -1    0    0    0    0  0.00000000000E+00  0.00000000000E+00  0.12525980253E-10  0.17130000000E+03  0.17130000000E+03 0. -1.
       11    1    1    2    0    0 -0.34310292901E-02 -0.11648329928E-03  0.12646722771E+00  0.12651484671E+00  0.51109989000E-03 0.  1.
     -623    1    1    2    0    0  0.52357771394E-03 -0.20484384185E-02  0.67883553993E-04  0.17130000001E+03  0.17130000000E+03 0. -1.
      622    1    1    2    0    0  0.29074515758E-02  0.21649217191E-02  0.38734648587E+01  0.38734851428E+01  0.12000000000E-01 0.  1.
</event>
<event>
 5   0  0.3564000E+09  0.9118800E+02  0.7818608E-02  0.1180000E+00
       11   -1    0    0    0    0  0.00000000000E+00  0.00000000000E+00  0.39999999673E+01  0.40000000000E+01  0.51109989000E-03 0. -1.
     -623   -1    0    0    0    0  0.00000000000E+00  0.00000000000E+00  0.12525980253E-10  0.17130000000E+03  0.17130000000E+03 0.  1.
       11    1    1    2    0    0 -0.98411299798E-03  0.46625556123E-04  0.12591640924E+00  0.12592130078E+00  0.51109989000E-03 0. -1.
     -623    1    1    2    0    0  0.87690601049E-05  0.27079886956E-04  0.23567494333E-04  0.17130000000E+03  0.17130000000E+03 0.  1.
      622    1    1    2    0    0  0.97534393787E-03 -0.73705443079E-04  0.38740599906E+01  0.38740786992E+01  0.12000000000E-01 0. -1.
</event>
<event>
 5   0  0.3564000E+09  0.9118800E+02  0.7818608E-02  0.1180000E+00
       11   -1    0    0    0    0  0.00000000000E+00  0.00000000000E+00  0.39999999673E+01  0.40000000000E+01  0.51109989000E-03 0.  1.
     -623   -1    0    0    0    0  0.00000000000E+00  0.00000000000E+00  0.12525980253E-10  0.17130000000E+03  0.17130000000E+03 0. -1.
       11    1    1    2    0    0 -0.11960909834E-02  0.19951413879E-02  0.48111284977E+00  0.48111874486E+00  0.51109989000E-03 0.  1.
     -623    1    1    2    0    0  0.23641828075E-02  0.49270253495E-04  0.27127648194E-04  0.17130000002E+03  0.17130000000E+03 0. -1.
      622    1    1    2    0    0 -0.11680918241E-02 -0.20444116414E-02  0.35188599899E+01  0.35188812388E+01  0.12000000000E-01 0.  1.
</event>
<event>
 5   0  0.3564000E+09  0.9118800E+02  0.7818608E-02  0.1180000E+00
       11   -1    0    0    0    0  0.00000000000E+00  0.00000000000E+00  0.39999999673E+01  0.40000000000E+01  0.51109989000E-03 0. -1.
     -623   -1    0    0    0    0  0.00000000000E+00  0.00000000000E+00  0.12525980253E-10  0.17130000000E+03  0.17130000000E+03 0.  1.
       11    1    1    2    0    0 -0.66966669578E-03  0.21712635413E-02  0.33751145326E-01  0.33831403647E-01  0.51109989000E-03 0. -1.
     -623    1    1    2    0    0 -0.87470794777E-03 -0.48818907270E-03  0.99040016012E-04  0.17130000000E+03  0.17130000000E+03 0.  1.
      622    1    1    2    0    0  0.15443746445E-02 -0.16830744681E-02  0.39661497862E+01  0.39661685975E+01  0.12000000000E-01 0. -1.
</event>
<event>
 5   0  0.3564000E+09  0.9118800E+02  0.7818608E-02  0.1180000E+00
       11   -1    0    0    0    0  0.00000000000E+00  0.00000000000E+00  0.39999999673E+01  0.40000000000E+01  0.51109989000E-03 0. -1.
     -623   -1    0    0    0    0  0.00000000000E+00  0.00000000000E+00  0.12525980253E-10  0.17130000000E+03  0.17130000000E+03 0.  1.
       11    1    1    2    0    0  0.16380208657E-01 -0.24105106740E-01  0.79235354475E+00  0.79288950586E+00  0.51109989000E-03 0. -1.
     -623    1    1    2    0    0 -0.22045556966E-01  0.75297157881E-02  0.60780195943E-03  0.17130000159E+03  0.17130000000E+03 0.  1.
      622    1    1    2    0    0  0.56653483109E-02  0.16575390951E-01  0.32070386211E+01  0.32071089095E+01  0.12000000000E-01 0. -1.
</event>
<event>
 5   0  0.3564000E+09  0.9118800E+02  0.7818608E-02  0.1180000E+00
       11   -1    0    0    0    0  0.00000000000E+00  0.00000000000E+00  0.39999999673E+01  0.40000000000E+01  0.51109989000E-03 0.  1.
     -623   -1    0    0    0    0  0.00000000000E+00  0.00000000000E+00  0.12525980253E-10  0.17130000000E+03  0.17130000000E+03 0. -1.
       11    1    1    2    0    0 -0.39403629531E-03 -0.91839333522E-03  0.15746881322E+00  0.15747281374E+00  0.51109989000E-03 0.  1.
     -623    1    1    2    0    0 -0.19039773877E-05 -0.22433315444E-04  0.22841180471E-04  0.17130000000E+03  0.17130000000E+03 0. -1.
      622    1    1    2    0    0  0.39594027270E-03  0.94082665067E-03  0.38425083130E+01  0.38425271863E+01  0.12000000000E-01 0.  1.
</event>
<event>
 5   0  0.3564000E+09  0.9118800E+02  0.7818608E-02  0.1180000E+00
       11   -1    0    0    0    0  0.00000000000E+00  0.00000000000E+00  0.39999999673E+01  0.40000000000E+01  0.51109989000E-03 0.  1.
     -623   -1    0    0    0    0  0.00000000000E+00  0.00000000000E+00  0.12525980253E-10  0.17130000000E+03  0.17130000000E+03 0.  1.
       11    1    1    2    0    0  0.13654877468E-03 -0.59829981531E-04  0.33673627972E-01  0.33677836454E-01  0.51109989000E-03 0.  1.
     -623    1    1    2    0    0 -0.18757759263E-03  0.15100473011E-03  0.22330267494E-04  0.17130000000E+03  0.17130000000E+03 0.  1.
      622    1    1    2    0    0  0.51028817950E-04 -0.91174748577E-04  0.39663040091E+01  0.39663221634E+01  0.12000000000E-01 0.  1.
</event>
<event>
 5   0  0.3564000E+09  0.9118800E+02  0.7818608E-02  0.1180000E+00
       11   -1    0    0    0    0  0.00000000000E+00  0.00000000000E+00  0.39999999673E+01  0.40000000000E+01  0.51109989000E-03 0.  1.
     -623   -1    0    0    0    0  0.00000000000E+00  0.00000000000E+00  0.12525980253E-10  0.17130000000E+03  0.17130000000E+03 0.  1.
       11    1    1    2    0    0  0.11029340511E-03  0.14513375846E-02  0.11399683216E+00  0.11400726954E+00  0.51109989000E-03 0.  1.
     -623    1    1    2    0    0 -0.63007335643E-03 -0.61671481326E-03  0.29059541219E-04  0.17130000000E+03  0.17130000000E+03 0.  1.
      622    1    1    2    0    0  0.51977995132E-03 -0.83462277138E-03  0.38859740757E+01  0.38859927282E+01  0.12000000000E-01 0.  1.
</event>
<event>
 5   0  0.3564000E+09  0.9118800E+02  0.7818608E-02  0.1180000E+00
       11   -1    0    0    0    0  0.00000000000E+00  0.00000000000E+00  0.39999999673E+01  0.40000000000E+01  0.51109989000E-03 0. -1.
     -623   -1    0    0    0    0  0.00000000000E+00  0.00000000000E+00  0.12525980253E-10  0.17130000000E+03  0.17130000000E+03 0. -1.
       11    1    1    2    0    0  0.15905945329E-02 -0.33816825289E-02  0.15352904755E+00  0.15357537379E+00  0.51109989000E-03 0. -1.
     -623    1    1    2    0    0  0.18076525241E-02 -0.24118991560E-05  0.68011699499E-04  0.17130000001E+03  0.17130000000E+03 0. -1.
      622    1    1    2    0    0 -0.33982470593E-02  0.33840944280E-02  0.38464029132E+01  0.38464246217E+01  0.12000000000E-01 0. -1.
</event>
<event>
 5   0  0.3564000E+09  0.9118800E+02  0.7818608E-02  0.1180000E+00
       11   -1    0    0    0    0  0.00000000000E+00  0.00000000000E+00  0.39999999673E+01  0.40000000000E+01  0.51109989000E-03 0.  1.
     -623   -1    0    0    0    0  0.00000000000E+00  0.00000000000E+00  0.12525980253E-10  0.17130000000E+03  0.17130000000E+03 0.  1.
       11    1    1    2    0    0 -0.10585491474E-02 -0.29689387025E-03  0.22545517506E-01  0.22578092368E-01  0.51109989000E-03 0.  1.
     -623    1    1    2    0    0 -0.23700844728E-03  0.26449141858E-03  0.50855949394E-04  0.17130000000E+03  0.17130000000E+03 0.  1.
      622    1    1    2    0    0  0.12955575953E-02  0.32402450938E-04  0.39774036050E+01  0.39774219184E+01  0.12000000000E-01 0.  1.
</event>
<event>
 5   0  0.3564000E+09  0.9118800E+02  0.7818608E-02  0.1180000E+00
       11   -1    0    0    0    0  0.00000000000E+00  0.00000000000E+00  0.39999999673E+01  0.40000000000E+01  0.51109989000E-03 0. -1.
     -623   -1    0    0    0    0  0.00000000000E+00  0.00000000000E+00  0.12525980253E-10  0.17130000000E+03  0.17130000000E+03 0.  1.
       11    1    1    2    0    0  0.38039621317E-03 -0.44218493938E-03  0.14041945494E+00  0.14042159654E+00  0.51109989000E-03 0. -1.
     -623    1    1    2    0    0  0.30345388451E-03  0.26974678359E-02  0.21504911098E-04  0.17130000002E+03  0.17130000000E+03 0.  1.
      622    1    1    2    0    0 -0.68385009768E-03 -0.22552828965E-02  0.38595590075E+01  0.38595783819E+01  0.12000000000E-01 0. -1.
</event>
<event>
 5   0  0.3564000E+09  0.9118800E+02  0.7818608E-02  0.1180000E+00
       11   -1    0    0    0    0  0.00000000000E+00  0.00000000000E+00  0.39999999673E+01  0.40000000000E+01  0.51109989000E-03 0. -1.
     -623   -1    0    0    0    0  0.00000000000E+00  0.00000000000E+00  0.12525980253E-10  0.17130000000E+03  0.17130000000E+03 0. -1.
       11    1    1    2    0    0  0.11026223118E-02  0.32291263893E-02  0.62069578333E-01  0.62165398823E-01  0.51109989000E-03 0. -1.
     -623    1    1    2    0    0  0.20363588196E-03 -0.20336344019E-03  0.11545146697E-03  0.17130000000E+03  0.17130000000E+03 0. -1.
      622    1    1    2    0    0 -0.13062581938E-02 -0.30257629491E-02  0.39378149367E+01  0.39378346001E+01  0.12000000000E-01 0. -1.
</event>
<event>
 5   0  0.3564000E+09  0.9118800E+02  0.7818608E-02  0.1180000E+00
       11   -1    0    0    0    0  0.00000000000E+00  0.00000000000E+00  0.39999999673E+01  0.40000000000E+01  0.51109989000E-03 0.  1.
     -623   -1    0    0    0    0  0.00000000000E+00  0.00000000000E+00  0.12525980253E-10  0.17130000000E+03  0.17130000000E+03 0. -1.
       11    1    1    2    0    0  0.98929828153E-02 -0.48026550275E-02  0.79227109997E+00  0.79234758387E+00  0.51109989000E-03 0.  1.
     -623    1    1    2    0    0 -0.42736571884E-04 -0.35394384620E-03  0.11816748286E-03  0.17130000000E+03  0.17130000000E+03 0. -1.
      622    1    1    2    0    0 -0.98502462434E-02  0.51565988738E-02  0.32076107007E+01  0.32076524165E+01  0.12000000000E-01 0.  1.
</event>
<event>
 5   0  0.3564000E+09  0.9118800E+02  0.7818608E-02  0.1180000E+00
       11   -1    0    0    0    0  0.00000000000E+00  0.00000000000E+00  0.39999999673E+01  0.40000000000E+01  0.51109989000E-03 0.  1.
     -623   -1    0    0    0    0  0.00000000000E+00  0.00000000000E+00  0.12525980253E-10  0.17130000000E+03  0.17130000000E+03 0. -1.
       11    1    1    2    0    0 -0.18810879298E-02 -0.25252638914E-02  0.70614722210E-01  0.70686743203E-01  0.51109989000E-03 0.  1.
     -623    1    1    2    0    0 -0.24359853654E-03  0.39123343810E-04  0.91673366423E-04  0.17130000000E+03  0.17130000000E+03 0. -1.
      622    1    1    2    0    0  0.21246864663E-02  0.24861405475E-02  0.39292935718E+01  0.39293132566E+01  0.12000000000E-01 0.  1.
</event>
<event>
 5   0  0.3564000E+09  0.9118800E+02  0.7818608E-02  0.1180000E+00
       11   -1    0    0    0    0  0.00000000000E+00  0.00000000000E+00  0.39999999673E+01  0.40000000000E+01  0.51109989000E-03 0. -1.
     -623   -1    0    0    0    0  0.00000000000E+00  0.00000000000E+00  0.12525980253E-10  0.17130000000E+03  0.17130000000E+03 0.  1.
       11    1    1    2    0    0  0.79585185962E-03  0.25987763540E-03  0.89213588144E-01  0.89218980311E-01  0.51109989000E-03 0. -1.
     -623    1    1    2    0    0 -0.11365202390E-02 -0.15799385306E-03  0.23790224551E-04  0.17130000000E+03  0.17130000000E+03 0.  1.
      622    1    1    2    0    0  0.34066837940E-03 -0.10188378235E-03  0.39107625890E+01  0.39107810158E+01  0.12000000000E-01 0. -1.
</event>
<event>
 5   0  0.3564000E+09  0.9118800E+02  0.7818608E-02  0.1180000E+00
       11   -1    0    0    0    0  0.00000000000E+00  0.00000000000E+00  0.39999999673E+01  0.40000000000E+01  0.51109989000E-03 0. -1.
     -623   -1    0    0    0    0  0.00000000000E+00  0.00000000000E+00  0.12525980253E-10  0.17130000000E+03  0.17130000000E+03 0. -1.
       11    1    1    2    0    0  0.11617481494E-01 -0.21197185282E-02  0.62100498927E+00  0.62111747440E+00  0.51109989000E-03 0. -1.
     -623    1    1    2    0    0 -0.59765802657E-03  0.47362550161E-03  0.15213419343E-03  0.17130000000E+03  0.17130000000E+03 0. -1.
      622    1    1    2    0    0 -0.11019823468E-01  0.16460930268E-02  0.33788428418E+01  0.33788825218E+01  0.12000000000E-01 0. -1.
</event>
<event>
 5   0  0.3564000E+09  0.9118800E+02  0.7818608E-02  0.1180000E+00
       11   -1    0    0    0    0  0.00000000000E+00  0.00000000000E+00  0.39999999673E+01  0.40000000000E+01  0.51109989000E-03 0. -1.
     -623   -1    0    0    0    0  0.00000000000E+00  0.00000000000E+00  0.12525980253E-10  0.17130000000E+03  0.17130000000E+03 0. -1.
       11    1    1    2    0    0 -0.62826943960E-02  0.12390714200E-02  0.19855974983E+00  0.19866364293E+00  0.51109989000E-03 0. -1.
     -623    1    1    2    0    0  0.49033520336E-02  0.24928912695E-02  0.12497176794E-03  0.17130000009E+03  0.17130000000E+03 0. -1.
      622    1    1    2    0    0  0.13793423624E-02 -0.37319626895E-02  0.38013152458E+01  0.38013362687E+01  0.12000000000E-01 0. -1.
</event>
<event>
 5   0  0.3564000E+09  0.9118800E+02  0.7818608E-02  0.1180000E+00
       11   -1    0    0    0    0  0.00000000000E+00  0.00000000000E+00  0.39999999673E+01  0.40000000000E+01  0.51109989000E-03 0.  1.
     -623   -1    0    0    0    0  0.00000000000E+00  0.00000000000E+00  0.12525980253E-10  0.17130000000E+03  0.17130000000E+03 0.  1.
       11    1    1    2    0    0 -0.25481818061E-02 -0.69597230191E-03  0.85751248956E+00  0.85751671038E+00  0.51109989000E-03 0.  1.
     -623    1    1    2    0    0 -0.48259911675E-02 -0.27402727025E-02  0.37720954881E-04  0.17130000009E+03  0.17130000000E+03 0.  1.
      622    1    1    2    0    0  0.73741729736E-02  0.34362450044E-02  0.31424497568E+01  0.31424831997E+01  0.12000000000E-01 0.  0.
</event>
<event>
 5   0  0.3564000E+09  0.9118800E+02  0.7818608E-02  0.1180000E+00
       11   -1    0    0    0    0  0.00000000000E+00  0.00000000000E+00  0.39999999673E+01  0.40000000000E+01  0.51109989000E-03 0. -1.
     -623   -1    0    0    0    0  0.00000000000E+00  0.00000000000E+00  0.12525980253E-10  0.17130000000E+03  0.17130000000E+03 0. -1.
       11    1    1    2    0    0 -0.80972507571E-03 -0.27255240957E-04  0.69604803663E-01  0.69611394996E-01  0.51109989000E-03 0. -1.
     -623    1    1    2    0    0  0.19300488961E-02 -0.19338034556E-02  0.25548230268E-04  0.17130000002E+03  0.17130000000E+03 0. -1.
      622    1    1    2    0    0 -0.11203238204E-02  0.19610586966E-02  0.39303696155E+01  0.39303885832E+01  0.12000000000E-01 0. -1.
</event>
<event>
 5   0  0.3564000E+09  0.9118800E+02  0.7818608E-02  0.1180000E+00
       11   -1    0    0    0    0  0.00000000000E+00  0.00000000000E+00  0.39999999673E+01  0.40000000000E+01  0.51109989000E-03 0.  1.
     -623   -1    0    0    0    0  0.00000000000E+00  0.00000000000E+00  0.12525980253E-10  0.17130000000E+03  0.17130000000E+03 0. -1.
       11    1    1    2    0    0  0.11037418600E-02  0.42142499011E-03  0.18051921035E-01  0.18097760068E-01  0.51109989000E-03 0.  1.
     -623    1    1    2    0    0 -0.63207713031E-03  0.14089515148E-03  0.63957119542E-04  0.17130000000E+03  0.17130000000E+03 0. -1.
      622    1    1    2    0    0 -0.47166472973E-03 -0.56232014160E-03  0.39818840892E+01  0.39819022387E+01  0.12000000000E-01 0.  1.
</event>
<event>
 5   0  0.3564000E+09  0.9118800E+02  0.7818608E-02  0.1180000E+00
       11   -1    0    0    0    0  0.00000000000E+00  0.00000000000E+00  0.39999999673E+01  0.40000000000E+01  0.51109989000E-03 0.  1.
     -623   -1    0    0    0    0  0.00000000000E+00  0.00000000000E+00  0.12525980253E-10  0.17130000000E+03  0.17130000000E+03 0. -1.
       11    1    1    2    0    0  0.12323533833E-02  0.22929543437E-03  0.17644860902E+00  0.17645380165E+00  0.51109989000E-03 0.  1.
     -623    1    1    2    0    0 -0.37516677824E-04 -0.96090482342E-05  0.24183738447E-04  0.17130000000E+03  0.17130000000E+03 0. -1.
      622    1    1    2    0    0 -0.11948367054E-02 -0.21968638611E-03  0.38235271870E+01  0.38235462108E+01  0.12000000000E-01 0.  1.
</event>
<event>
 5   0  0.3564000E+09  0.9118800E+02  0.7818608E-02  0.1180000E+00
       11   -1    0    0    0    0  0.00000000000E+00  0.00000000000E+00  0.39999999673E+01  0.40000000000E+01  0.51109989000E-03 0. -1.
     -623   -1    0    0    0    0  0.00000000000E+00  0.00000000000E+00  0.12525980253E-10  0.17130000000E+03  0.17130000000E+03 0.  1.
       11    1    1    2    0    0  0.66785720683E-03 -0.89438863283E-04  0.14040633272E-01  0.14066081129E-01  0.51109989000E-03 0. -1.
     -623    1    1    2    0    0 -0.23575661416E-03  0.16560068754E-02  0.43818223570E-04  0.17130000001E+03  0.17130000000E+03 0.  1.
      622    1    1    2    0    0 -0.43210059305E-03 -0.15665680094E-02  0.39859155092E+01  0.39859339040E+01  0.12000000000E-01 0. -1.
</event>
<event>
 5   0  0.3564000E+09  0.9118800E+02  0.7818608E-02  0.1180000E+00
       11   -1    0    0    0    0  0.00000000000E+00  0.00000000000E+00  0.39999999673E+01  0.40000000000E+01  0.51109989000E-03 0.  1.
     -623   -1    0    0    0    0  0.00000000000E+00  0.00000000000E+00  0.12525980253E-10  0.17130000000E+03  0.17130000000E+03 0.  1.
       11    1    1    2    0    0  0.25740348945E-03  0.66228926527E-03  0.59350228612E+00  0.59350293153E+00  0.51109989000E-03 0.  1.
     -623    1    1    2    0    0  0.25459985854E-02 -0.29078928648E-02  0.23686238336E-04  0.17130000004E+03  0.17130000000E+03 0.  1.
      622    1    1    2    0    0 -0.28034020748E-02  0.22456035995E-02  0.34064739950E+01  0.34064970249E+01  0.12000000000E-01 0.  1.
</event>
<event>
 5   0  0.3564000E+09  0.9118800E+02  0.7818608E-02  0.1180000E+00
       11   -1    0    0    0    0  0.00000000000E+00  0.00000000000E+00  0.39999999673E+01  0.40000000000E+01  0.51109989000E-03 0. -1.
     -623   -1    0    0    0    0  0.00000000000E+00  0.00000000000E+00  0.12525980253E-10  0.17130000000E+03  0.17130000000E+03 0. -1.
       11    1    1    2    0    0  0.25413701536E-02 -0.15920983063E-03  0.28638748626E+00  0.28639926225E+00  0.51109989000E-03 0. -1.
     -623    1    1    2    0    0  0.19649279139E-04  0.73862603575E-03  0.32061477628E-04  0.17130000000E+03  0.17130000000E+03 0. -1.
      622    1    1    2    0    0 -0.25610194328E-02 -0.57941620512E-03  0.37135804196E+01  0.37136007362E+01  0.12000000000E-01 0. -1.
</event>
<event>
 5   0  0.3564000E+09  0.9118800E+02  0.7818608E-02  0.1180000E+00
       11   -1    0    0    0    0  0.00000000000E+00  0.00000000000E+00  0.39999999673E+01  0.40000000000E+01  0.51109989000E-03 0. -1.
     -623   -1    0    0    0    0  0.00000000000E+00  0.00000000000E+00  0.12525980253E-10  0.17130000000E+03  0.17130000000E+03 0. -1.
       11    1    1    2    0    0  0.65201558044E-02 -0.87036057858E-03  0.71156359248E+00  0.71159418022E+00  0.51109989000E-03 0. -1.
     -623    1    1    2    0    0 -0.32710004714E-02  0.22842484943E-02  0.54405908678E-04  0.17130000005E+03  0.17130000000E+03 0. -1.
      622    1    1    2    0    0 -0.32491553330E-02 -0.14138879157E-02  0.32883819690E+01  0.32884057733E+01  0.12000000000E-01 0. -1.
</event>
<event>
 5   0  0.3564000E+09  0.9118800E+02  0.7818608E-02  0.1180000E+00
       11   -1    0    0    0    0  0.00000000000E+00  0.00000000000E+00  0.39999999673E+01  0.40000000000E+01  0.51109989000E-03 0.  1.
     -623   -1    0    0    0    0  0.00000000000E+00  0.00000000000E+00  0.12525980253E-10  0.17130000000E+03  0.17130000000E+03 0. -1.
       11    1    1    2    0    0 -0.19469600000E-02  0.18922408526E-02  0.27171892600E+00  0.27173297039E+00  0.51109989000E-03 0.  1.
     -623    1    1    2    0    0  0.32810868990E-03  0.45147639386E-04  0.34178890521E-04  0.17130000000E+03  0.17130000000E+03 0. -1.
      622    1    1    2    0    0  0.16188513101E-02 -0.19373884919E-02  0.37282468625E+01  0.37282670293E+01  0.12000000000E-01 0.  0.
</event>
<event>
 5   0  0.3564000E+09  0.9118800E+02  0.7818608E-02  0.1180000E+00
       11   -1    0    0    0    0  0.00000000000E+00  0.00000000000E+00  0.39999999673E+01  0.40000000000E+01  0.51109989000E-03 0.  1.
     -623   -1    0    0    0    0  0.00000000000E+00  0.00000000000E+00  0.12525980253E-10  0.17130000000E+03  0.17130000000E+03 0. -1.
       11    1    1    2    0    0  0.89831319586E-03 -0.21346598412E-02  0.63058397488E+00  0.63058843498E+00  0.51109989000E-03 0.  1.
     -623    1    1    2    0    0 -0.24545954832E-03 -0.31233540026E-04  0.26555813064E-04  0.17130000000E+03  0.17130000000E+03 0. -1.
      622    1    1    2    0    0 -0.65285364720E-03  0.21658933813E-02  0.33693894422E+01  0.33694115704E+01  0.12000000000E-01 0.  1.
</event>
<event>
 5   0  0.3564000E+09  0.9118800E+02  0.7818608E-02  0.1180000E+00
       11   -1    0    0    0    0  0.00000000000E+00  0.00000000000E+00  0.39999999673E+01  0.40000000000E+01  0.51109989000E-03 0.  1.
     -623   -1    0    0    0    0  0.00000000000E+00  0.00000000000E+00  0.12525980253E-10  0.17130000000E+03  0.17130000000E+03 0. -1.
       11    1    1    2    0    0  0.30294099719E-02  0.36095953795E-03  0.30141983960E+00  0.30143571212E+00  0.51109989000E-03 0.  1.
     -623    1    1    2    0    0 -0.61540870337E-04 -0.39144703736E-04  0.36511740698E-04  0.17130000000E+03  0.17130000000E+03 0. -1.
      622    1    1    2    0    0 -0.29678691016E-02 -0.32181483422E-03  0.36985436160E+01  0.36985642879E+01  0.12000000000E-01 0.  1.
</event>
<event>
 5   0  0.3564000E+09  0.9118800E+02  0.7818608E-02  0.1180000E+00
       11   -1    0    0    0    0  0.00000000000E+00  0.00000000000E+00  0.39999999673E+01  0.40000000000E+01  0.51109989000E-03 0. -1.
     -623   -1    0    0    0    0  0.00000000000E+00  0.00000000000E+00  0.12525980253E-10  0.17130000000E+03  0.17130000000E+03 0. -1.
       11    1    1    2    0    0 -0.38611981299E-04 -0.48934901987E-02  0.19205375211E+00  0.19211676828E+00  0.51109989000E-03 0. -1.
     -623    1    1    2    0    0  0.76531561876E-04 -0.10824425925E-04  0.85050196609E-04  0.17130000000E+03  0.17130000000E+03 0. -1.
      622    1    1    2    0    0 -0.37919580577E-04  0.49043146246E-02  0.38078611651E+01  0.38078832317E+01  0.12000000000E-01 0. -1.
</event>
<event>
 5   0  0.3564000E+09  0.9118800E+02  0.7818608E-02  0.1180000E+00
       11   -1    0    0    0    0  0.00000000000E+00  0.00000000000E+00  0.39999999673E+01  0.40000000000E+01  0.51109989000E-03 0. -1.
     -623   -1    0    0    0    0  0.00000000000E+00  0.00000000000E+00  0.12525980253E-10  0.17130000000E+03  0.17130000000E+03 0.  1.
       11    1    1    2    0    0 -0.14293680919E-02  0.47251030824E-02  0.62052724902E-01  0.62250876145E-01  0.51109989000E-03 0. -1.
     -623    1    1    2    0    0 -0.16599626963E-02 -0.67807820638E-03  0.21970426687E-03  0.17130000001E+03  0.17130000000E+03 0.  1.
      622    1    1    2    0    0  0.30893307882E-02 -0.40470248760E-02  0.39377275382E+01  0.39377491143E+01  0.12000000000E-01 0. -1.
</event>
<event>
 5   0  0.3564000E+09  0.9118800E+02  0.7818608E-02  0.1180000E+00
       11   -1    0    0    0    0  0.00000000000E+00  0.00000000000E+00  0.39999999673E+01  0.40000000000E+01  0.51109989000E-03 0. -1.
     -623   -1    0    0    0    0  0.00000000000E+00  0.00000000000E+00  0.12525980253E-10  0.17130000000E+03  0.17130000000E+03 0. -1.
       11    1    1    2    0    0 -0.84485252432E-03  0.10154490366E-02  0.68118174778E-01  0.68132898582E-01  0.51109989000E-03 0. -1.
     -623    1    1    2    0    0  0.51829089079E-03 -0.13477441195E-02  0.33036809854E-04  0.17130000001E+03  0.17130000000E+03 0. -1.
      622    1    1    2    0    0  0.32656163353E-03  0.33229508291E-03  0.39318487558E+01  0.39318670953E+01  0.12000000000E-01 0. -1.
</event>
<event>
 5   0  0.3564000E+09  0.9118800E+02  0.7818608E-02  0.1180000E+00
       11   -1    0    0    0    0  0.00000000000E+00  0.00000000000E+00  0.39999999673E+01  0.40000000000E+01  0.51109989000E-03 0.  1.
     -623   -1    0    0    0    0  0.00000000000E+00  0.00000000000E+00  0.12525980253E-10  0.17130000000E+03  0.17130000000E+03 0. -1.
       11    1    1    2    0    0 -0.66072105147E-03 -0.12440700684E-02  0.11705813331E+00  0.11706772424E+00  0.51109989000E-03 0.  1.
     -623    1    1    2    0    0 -0.14502235882E-02 -0.96170012432E-03  0.29310181026E-04  0.17130000001E+03  0.17130000000E+03 0. -1.
      622    1    1    2    0    0  0.21109446397E-02  0.22057701927E-02  0.38829125239E+01  0.38829322669E+01  0.12000000000E-01 0.  1.
</event>
<event>
 5   0  0.3564000E+09  0.9118800E+02  0.7818608E-02  0.1180000E+00
       11   -1    0    0    0    0  0.00000000000E+00  0.00000000000E+00  0.39999999673E+01  0.40000000000E+01  0.51109989000E-03 0. -1.
     -623   -1    0    0    0    0  0.00000000000E+00  0.00000000000E+00  0.12525980253E-10  0.17130000000E+03  0.17130000000E+03 0. -1.
       11    1    1    2    0    0 -0.51160620988E-03 -0.31455363424E-03  0.54588686403E-01  0.54594382415E-01  0.51109989000E-03 0. -1.
     -623    1    1    2    0    0  0.14883151356E-03  0.47356501365E-03  0.23933091339E-04  0.17130000000E+03  0.17130000000E+03 0. -1.
      622    1    1    2    0    0  0.36277469633E-03 -0.15901137935E-03  0.39453873473E+01  0.39454056163E+01  0.12000000000E-01 0. -1.
</event>
<event>
 5   0  0.3564000E+09  0.9118800E+02  0.7818608E-02  0.1180000E+00
       11   -1    0    0    0    0  0.00000000000E+00  0.00000000000E+00  0.39999999673E+01  0.40000000000E+01  0.51109989000E-03 0. -1.
     -623   -1    0    0    0    0  0.00000000000E+00  0.00000000000E+00  0.12525980253E-10  0.17130000000E+03  0.17130000000E+03 0.  1.
       11    1    1    2    0    0 -0.47137063838E-03 -0.22992988258E-02  0.17616539031E+00  0.17618176673E+00  0.51109989000E-03 0.  1.
     -623    1    1    2    0    0  0.19057689303E-04 -0.33609940775E-04  0.35911592481E-04  0.17130000000E+03  0.17130000000E+03 0.  1.
      622    1    1    2    0    0  0.45231294907E-03  0.23329087666E-02  0.38237986655E+01  0.38238182333E+01  0.12000000000E-01 0. -1.
</event>
<event>
 5   0  0.3564000E+09  0.9118800E+02  0.7818608E-02  0.1180000E+00
       11   -1    0    0    0    0  0.00000000000E+00  0.00000000000E+00  0.39999999673E+01  0.40000000000E+01  0.51109989000E-03 0. -1.
     -623   -1    0    0    0    0  0.00000000000E+00  0.00000000000E+00  0.12525980253E-10  0.17130000000E+03  0.17130000000E+03 0. -1.
       11    1    1    2    0    0  0.35926456968E-02 -0.34550472914E-03  0.98119932474E+00  0.98120609587E+00  0.51109989000E-03 0. -1.
     -623    1    1    2    0    0 -0.16552063674E-02 -0.73778816885E-03  0.31414849217E-04  0.17130000001E+03  0.17130000000E+03 0. -1.
      622    1    1    2    0    0 -0.19374393244E-02  0.10832929002E-02  0.30187692399E+01  0.30187939067E+01  0.12000000000E-01 0. -1.
</event>
<event>
 5   0  0.3564000E+09  0.9118800E+02  0.7818608E-02  0.1180000E+00
       11   -1    0    0    0    0  0.00000000000E+00  0.00000000000E+00  0.39999999673E+01  0.40000000000E+01  0.51109989000E-03 0. -1.
     -623   -1    0    0    0    0  0.00000000000E+00  0.00000000000E+00  0.12525980253E-10  0.17130000000E+03  0.17130000000E+03 0. -1.
       11    1    1    2    0    0 -0.94070652703E-02 -0.97214175457E-02  0.10094983441E+01  0.10095891079E+01  0.51109989000E-03 0. -1.
     -623    1    1    2    0    0 -0.19164473225E-02  0.10148777867E-01  0.13658927114E-03  0.17130000031E+03  0.17130000000E+03 0. -1.
      622    1    1    2    0    0  0.11323512593E-01 -0.42736032126E-03  0.29903650340E+01  0.29904105807E+01  0.12000000000E-01 0.  1.
</event>
<event>
 5   0  0.3564000E+09  0.9118800E+02  0.7818608E-02  0.1180000E+00
       11   -1    0    0    0    0  0.00000000000E+00  0.00000000000E+00  0.39999999673E+01  0.40000000000E+01  0.51109989000E-03 0. -1.
     -623   -1    0    0    0    0  0.00000000000E+00  0.00000000000E+00  0.12525980253E-10  0.17130000000E+03  0.17130000000E+03 0.  1.
       11    1    1    2    0    0 -0.29483038697E-03 -0.58878371619E-03  0.41615044920E-01  0.41623392198E-01  0.51109989000E-03 0. -1.
     -623    1    1    2    0    0  0.19714169988E-04  0.12446731025E-03  0.26540795219E-04  0.17130000000E+03  0.17130000000E+03 0.  1.
      622    1    1    2    0    0  0.27511621704E-03  0.46431640627E-03  0.39583583712E+01  0.39583765973E+01  0.12000000000E-01 0. -1.
</event>
<event>
 5   0  0.3564000E+09  0.9118800E+02  0.7818608E-02  0.1180000E+00
       11   -1    0    0    0    0  0.00000000000E+00  0.00000000000E+00  0.39999999673E+01  0.40000000000E+01  0.51109989000E-03 0.  1.
     -623   -1    0    0    0    0  0.00000000000E+00  0.00000000000E+00  0.12525980253E-10  0.17130000000E+03  0.17130000000E+03 0. -1.
       11    1    1    2    0    0 -0.22312435550E-03  0.35126799376E-03  0.14886078308E-02  0.16279895739E-02  0.51109989000E-03 0.  1.
     -623    1    1    2    0    0  0.19679966113E-03 -0.89229678976E-04  0.15736535423E-03  0.17130000000E+03  0.17130000000E+03 0. -1.
      622    1    1    2    0    0  0.26324694277E-04 -0.26203831475E-03  0.39983539960E+01  0.39983720120E+01  0.12000000000E-01 0.  1.
</event>
<event>
 5   0  0.3564000E+09  0.9118800E+02  0.7818608E-02  0.1180000E+00
       11   -1    0    0    0    0  0.00000000000E+00  0.00000000000E+00  0.39999999673E+01  0.40000000000E+01  0.51109989000E-03 0.  1.
     -623   -1    0    0    0    0  0.00000000000E+00  0.00000000000E+00  0.12525980253E-10  0.17130000000E+03  0.17130000000E+03 0.  1.
       11    1    1    2    0    0 -0.89856675585E-02  0.57537391570E-02  0.89554203316E+00  0.89560574033E+00  0.51109989000E-03 0.  1.
     -623    1    1    2    0    0  0.90931137939E-03  0.14005811532E-02  0.10562543967E-03  0.17130000001E+03  0.17130000000E+03 0.  1.
      622    1    1    2    0    0  0.80763561791E-02 -0.71543203102E-02  0.31043523088E+01  0.31043942515E+01  0.12000000000E-01 0.  1.
</event>
<event>
 5   0  0.3564000E+09  0.9118800E+02  0.7818608E-02  0.1180000E+00
       11   -1    0    0    0    0  0.00000000000E+00  0.00000000000E+00  0.39999999673E+01  0.40000000000E+01  0.51109989000E-03 0.  1.
     -623   -1    0    0    0    0  0.00000000000E+00  0.00000000000E+00  0.12525980253E-10  0.17130000000E+03  0.17130000000E+03 0.  1.
       11    1    1    2    0    0  0.21727917568E-03  0.96650968243E-04  0.62626937283E+00  0.62626962654E+00  0.51109989000E-03 0.  1.
     -623    1    1    2    0    0  0.24621497976E-02 -0.19887086568E-02  0.23186302754E-04  0.17130000003E+03  0.17130000000E+03 0.  1.
      622    1    1    2    0    0 -0.26794289856E-02  0.18920576985E-02  0.33737074282E+01  0.33737303642E+01  0.12000000000E-01 0.  0.
</event>
<event>
 5   0  0.3564000E+09  0.9118800E+02  0.7818608E-02  0.1180000E+00
       11   -1    0    0    0    0  0.00000000000E+00  0.00000000000E+00  0.39999999673E+01  0.40000000000E+01  0.51109989000E-03 0. -1.
     -623   -1    0    0    0    0  0.00000000000E+00  0.00000000000E+00  0.12525980253E-10  0.17130000000E+03  0.17130000000E+03 0. -1.
       11    1    1    2    0    0 -0.83826504554E-03 -0.21337805251E-03  0.48680159080E-02  0.49706156629E-02  0.51109989000E-03 0. -1.
     -623    1    1    2    0    0  0.10762836834E-02 -0.57166636870E-04  0.12060923575E-03  0.17130000000E+03  0.17130000000E+03 0. -1.
      622    1    1    2    0    0 -0.23801863784E-03  0.27054468938E-03  0.39950113422E+01  0.39950293809E+01  0.12000000000E-01 0. -1.
</event>
<event>
 5   0  0.3564000E+09  0.9118800E+02  0.7818608E-02  0.1180000E+00
       11   -1    0    0    0    0  0.00000000000E+00  0.00000000000E+00  0.39999999673E+01  0.40000000000E+01  0.51109989000E-03 0. -1.
     -623   -1    0    0    0    0  0.00000000000E+00  0.00000000000E+00  0.12525980253E-10  0.17130000000E+03  0.17130000000E+03 0. -1.
       11    1    1    2    0    0 -0.25502257612E-02  0.60234561982E-02  0.98468061937E+00  0.98470247743E+00  0.51109989000E-03 0. -1.
     -623    1    1    2    0    0  0.25836569466E-03  0.18660168587E-03  0.52969985047E-04  0.17130000000E+03  0.17130000000E+03 0. -1.
      622    1    1    2    0    0  0.22918600666E-02 -0.62100578841E-02  0.30152663780E+01  0.30152975223E+01  0.12000000000E-01 0. -1.
</event>
<event>
 5   0  0.3564000E+09  0.9118800E+02  0.7818608E-02  0.1180000E+00
       11   -1    0    0    0    0  0.00000000000E+00  0.00000000000E+00  0.39999999673E+01  0.40000000000E+01  0.51109989000E-03 0. -1.
     -623   -1    0    0    0    0  0.00000000000E+00  0.00000000000E+00  0.12525980253E-10  0.17130000000E+03  0.17130000000E+03 0. -1.
       11    1    1    2    0    0  0.41064267469E-03 -0.52944322048E-03  0.28440355657E+00  0.28440480507E+00  0.51109989000E-03 0. -1.
     -623    1    1    2    0    0  0.26585277621E-04 -0.10288993074E-04  0.20658627102E-04  0.17130000000E+03  0.17130000000E+03 0. -1.
      622    1    1    2    0    0 -0.43722795231E-03  0.53973221356E-03  0.37155757522E+01  0.37155951949E+01  0.12000000000E-01 0. -1.
</event>
<event>
 5   0  0.3564000E+09  0.9118800E+02  0.7818608E-02  0.1180000E+00
       11   -1    0    0    0    0  0.00000000000E+00  0.00000000000E+00  0.39999999673E+01  0.40000000000E+01  0.51109989000E-03 0. -1.
     -623   -1    0    0    0    0  0.00000000000E+00  0.00000000000E+00  0.12525980253E-10  0.17130000000E+03  0.17130000000E+03 0. -1.
       11    1    1    2    0    0  0.91606764712E-03  0.60919042805E-03  0.12287840025E+00  0.12288438779E+00  0.51109989000E-03 0. -1.
     -623    1    1    2    0    0 -0.10249563579E-03 -0.16269451722E-03  0.24636628170E-04  0.17130000000E+03  0.17130000000E+03 0. -1.
      622    1    1    2    0    0 -0.81357201133E-03 -0.44649591083E-03  0.38770969305E+01  0.38771156121E+01  0.12000000000E-01 0. -1.
</event>
<event>
 5   0  0.3564000E+09  0.9118800E+02  0.7818608E-02  0.1180000E+00
       11   -1    0    0    0    0  0.00000000000E+00  0.00000000000E+00  0.39999999673E+01  0.40000000000E+01  0.51109989000E-03 0.  1.
     -623   -1    0    0    0    0  0.00000000000E+00  0.00000000000E+00  0.12525980253E-10  0.17130000000E+03  0.17130000000E+03 0. -1.
       11    1    1    2    0    0 -0.59026675983E-03  0.28795459437E-03  0.22265719161E-02  0.23770100895E-02  0.51109989000E-03 0.  1.
     -623    1    1    2    0    0  0.12109315589E-03 -0.66043444781E-03  0.16846256071E-03  0.17130000000E+03  0.17130000000E+03 0. -1.
      622    1    1    2    0    0  0.46917360394E-03  0.37247985344E-03  0.39976049329E+01  0.39976229885E+01  0.12000000000E-01 0.  1.
</event>
<event>
 5   0  0.3564000E+09  0.9118800E+02  0.7818608E-02  0.1180000E+00
       11   -1    0    0    0    0  0.00000000000E+00  0.00000000000E+00  0.39999999673E+01  0.40000000000E+01  0.51109989000E-03 0. -1.
     -623   -1    0    0    0    0  0.00000000000E+00  0.00000000000E+00  0.12525980253E-10  0.17130000000E+03  0.17130000000E+03 0. -1.
       11    1    1    2    0    0 -0.14353260271E-02  0.76152612289E-03  0.38376856735E-01  0.38414638340E-01  0.51109989000E-03 0. -1.
     -623    1    1    2    0    0 -0.22092330331E-02  0.19232698551E-02  0.58534818964E-04  0.17130000003E+03  0.17130000000E+03 0. -1.
      622    1    1    2    0    0  0.36445590602E-02 -0.26847959780E-02  0.39615645758E+01  0.39615853366E+01  0.12000000000E-01 0. -1.
</event>
<event>
 5   0  0.3564000E+09  0.9118800E+02  0.7818608E-02  0.1180000E+00
       11   -1    0    0    0    0  0.00000000000E+00  0.00000000000E+00  0.39999999673E+01  0.40000000000E+01  0.51109989000E-03 0.  1.
     -623   -1    0    0    0    0  0.00000000000E+00  0.00000000000E+00  0.12525980253E-10  0.17130000000E+03  0.17130000000E+03 0.  1.
       11    1    1    2    0    0 -0.12617926599E-02 -0.94219710919E-03  0.38699649382E-01  0.38735047974E-01  0.51109989000E-03 0.  1.
     -623    1    1    2    0    0 -0.14404405326E-02  0.22842667442E-02  0.54712334606E-04  0.17130000002E+03  0.17130000000E+03 0.  1.
      622    1    1    2    0    0  0.27022331934E-02 -0.13420696364E-02  0.39612456081E+01  0.39612649332E+01  0.12000000000E-01 0.  1.
</event>
<event>
 5   0  0.3564000E+09  0.9118800E+02  0.7818608E-02  0.1180000E+00
       11   -1    0    0    0    0  0.00000000000E+00  0.00000000000E+00  0.39999999673E+01  0.40000000000E+01  0.51109989000E-03 0.  1.
     -623   -1    0    0    0    0  0.00000000000E+00  0.00000000000E+00  0.12525980253E-10  0.17130000000E+03  0.17130000000E+03 0.  1.
       11    1    1    2    0    0  0.46248010147E-02  0.10104848256E-01  0.38830955843E+00  0.38846888052E+00  0.51109989000E-03 0.  1.
     -623    1    1    2    0    0  0.23770857139E-03 -0.35245266391E-03  0.19566725557E-03  0.17130000000E+03  0.17130000000E+03 0.  1.
      622    1    1    2    0    0 -0.48625095860E-02 -0.97523955919E-02  0.36114947417E+01  0.36115311188E+01  0.12000000000E-01 0.  1.
</event>
<event>
 5   0  0.3564000E+09  0.9118800E+02  0.7818608E-02  0.1180000E+00
       11   -1    0    0    0    0  0.00000000000E+00  0.00000000000E+00  0.39999999673E+01  0.40000000000E+01  0.51109989000E-03 0.  1.
     -623   -1    0    0    0    0  0.00000000000E+00  0.00000000000E+00  0.12525980253E-10  0.17130000000E+03  0.17130000000E+03 0. -1.
       11    1    1    2    0    0  0.57893759963E-02 -0.40553889664E-02  0.24526133920E+00  0.24536370714E+00  0.51109989000E-03 0.  1.
     -623    1    1    2    0    0 -0.27149506719E-02  0.71615667001E-02  0.12422649615E-03  0.17130000017E+03  0.17130000000E+03 0. -1.
      622    1    1    2    0    0 -0.30744253244E-02 -0.31061777337E-02  0.37546144017E+01  0.37546361216E+01  0.12000000000E-01 0.  1.
</event>
<event>
 5   0  0.3564000E+09  0.9118800E+02  0.7818608E-02  0.1180000E+00
       11   -1    0    0    0    0  0.00000000000E+00  0.00000000000E+00  0.39999999673E+01  0.40000000000E+01  0.51109989000E-03 0. -1.
     -623   -1    0    0    0    0  0.00000000000E+00  0.00000000000E+00  0.12525980253E-10  0.17130000000E+03  0.17130000000E+03 0. -1.
       11    1    1    2    0    0 -0.73101407835E-02  0.60837996961E-02  0.15295155550E+00  0.15324780694E+00  0.51109989000E-03 0. -1.
     -623    1    1    2    0    0  0.45528870152E-02  0.33410540501E-02  0.32756340022E-03  0.17130000009E+03  0.17130000000E+03 0. -1.
      622    1    1    2    0    0  0.27572537671E-02 -0.94248537470E-02  0.38467208495E+01  0.38467521007E+01  0.12000000000E-01 0. -1.
</event>
<event>
 5   0  0.3564000E+09  0.9118800E+02  0.7818608E-02  0.1180000E+00
       11   -1    0    0    0    0  0.00000000000E+00  0.00000000000E+00  0.39999999673E+01  0.40000000000E+01  0.51109989000E-03 0. -1.
     -623   -1    0    0    0    0  0.00000000000E+00  0.00000000000E+00  0.12525980253E-10  0.17130000000E+03  0.17130000000E+03 0.  1.
       11    1    1    2    0    0 -0.12676379198E-02 -0.64702840262E-04  0.64845680152E+00  0.64845824518E+00  0.51109989000E-03 0. -1.
     -623    1    1    2    0    0  0.51448587618E-03  0.19737892267E-03  0.22981883510E-04  0.17130000000E+03  0.17130000000E+03 0.  1.
      622    1    1    2    0    0  0.75315204363E-03 -0.13267608241E-03  0.33515201840E+01  0.33515417539E+01  0.12000000000E-01 0. -1.
</event>
<event>
 5   0  0.3564000E+09  0.9118800E+02  0.7818608E-02  0.1180000E+00
       11   -1    0    0    0    0  0.00000000000E+00  0.00000000000E+00  0.39999999673E+01  0.40000000000E+01  0.51109989000E-03 0.  1.
     -623   -1    0    0    0    0  0.00000000000E+00  0.00000000000E+00  0.12525980253E-10  0.17130000000E+03  0.17130000000E+03 0. -1.
       11    1    1    2    0    0 -0.14235507462E-01  0.23130779305E-02  0.13716303164E+00  0.13792011627E+00  0.51109989000E-03 0.  1.
     -623    1    1    2    0    0  0.95470052713E-02  0.34365086151E-02  0.78312285334E-03  0.17130000030E+03  0.17130000000E+03 0. -1.
      622    1    1    2    0    0  0.46885021903E-02 -0.57495865456E-02  0.38620538129E+01  0.38620795814E+01  0.12000000000E-01 0.  1.
</event>
<event>
 5   0  0.3564000E+09  0.9118800E+02  0.7818608E-02  0.1180000E+00
       11   -1    0    0    0    0  0.00000000000E+00  0.00000000000E+00  0.39999999673E+01  0.40000000000E+01  0.51109989000E-03 0.  1.
     -623   -1    0    0    0    0  0.00000000000E+00  0.00000000000E+00  0.12525980253E-10  0.17130000000E+03  0.17130000000E+03 0. -1.
       11    1    1    2    0    0 -0.28057419729E-02 -0.24076567434E-02  0.17458422927E+00  0.17462412013E+00  0.51109989000E-03 0. -1.
     -623    1    1    2    0    0 -0.75492006033E-03  0.32716045760E-04  0.61075991896E-04  0.17130000000E+03  0.17130000000E+03 0. -1.
      622    1    1    2    0    0  0.35606620332E-02  0.23749406976E-02  0.38253546621E+01  0.38253758782E+01  0.12000000000E-01 0.  1.
</event>
<event>
 5   0  0.3564000E+09  0.9118800E+02  0.7818608E-02  0.1180000E+00
       11   -1    0    0    0    0  0.00000000000E+00  0.00000000000E+00  0.39999999673E+01  0.40000000000E+01  0.51109989000E-03 0. -1.
     -623   -1    0    0    0    0  0.00000000000E+00  0.00000000000E+00  0.12525980253E-10  0.17130000000E+03  0.17130000000E+03 0.  1.
       11    1    1    2    0    0  0.18690397538E-02  0.22651045475E-03  0.70352053753E-01  0.70379097088E-01  0.51109989000E-03 0. -1.
     -623    1    1    2    0    0  0.10330248401E-02 -0.14637613439E-02  0.46608874912E-04  0.17130000001E+03  0.17130000000E+03 0.  1.
      622    1    1    2    0    0 -0.29020645933E-02  0.12372508883E-02  0.39296013024E+01  0.39296208912E+01  0.12000000000E-01 0. -1.
</event>
<event>
 5   0  0.3564000E+09  0.9118800E+02  0.7818608E-02  0.1180000E+00
       11   -1    0    0    0    0  0.00000000000E+00  0.00000000000E+00  0.39999999673E+01  0.40000000000E+01  0.51109989000E-03 0.  1.
     -623   -1    0    0    0    0  0.00000000000E+00  0.00000000000E+00  0.12525980253E-10  0.17130000000E+03  0.17130000000E+03 0.  1.
       11    1    1    2    0    0  0.70750622181E-04  0.38979720894E-03  0.64599804789E-01  0.64603041332E-01  0.51109989000E-03 0.  1.
     -623    1    1    2    0    0  0.12168357561E-04 -0.35291065218E-03  0.21500843378E-04  0.17130000000E+03  0.17130000000E+03 0.  1.
      622    1    1    2    0    0 -0.82918979784E-04 -0.36886555529E-04  0.39353786756E+01  0.39353969722E+01  0.12000000000E-01 0.  1.
</event>
<event>
 5   0  0.3564000E+09  0.9118800E+02  0.7818608E-02  0.1180000E+00
       11   -1    0    0    0    0  0.00000000000E+00  0.00000000000E+00  0.39999999673E+01  0.40000000000E+01  0.51109989000E-03 0.  1.
     -623   -1    0    0    0    0  0.00000000000E+00  0.00000000000E+00  0.12525980253E-10  0.17130000000E+03  0.17130000000E+03 0.  1.
       11    1    1    2    0    0  0.45014272976E-02 -0.69706017104E-02  0.10852402496E+01  0.10852720916E+01  0.51109989000E-03 0.  1.
     -623    1    1    2    0    0  0.67250258761E-03  0.77031657734E-03  0.67701557704E-04  0.17130000000E+03  0.17130000000E+03 0.  1.
      622    1    1    2    0    0 -0.51739298852E-02  0.62002851330E-02  0.29146920162E+01  0.29147279053E+01  0.12000000000E-01 0.  1.
</event>
<event>
 5   0  0.3564000E+09  0.9118800E+02  0.7818608E-02  0.1180000E+00
       11   -1    0    0    0    0  0.00000000000E+00  0.00000000000E+00  0.39999999673E+01  0.40000000000E+01  0.51109989000E-03 0. -1.
     -623   -1    0    0    0    0  0.00000000000E+00  0.00000000000E+00  0.12525980253E-10  0.17130000000E+03  0.17130000000E+03 0. -1.
       11    1    1    2    0    0 -0.15837420934E-02 -0.38239752237E-03  0.51632371825E+00  0.51632654175E+00  0.51109989000E-03 0. -1.
     -623    1    1    2    0    0  0.46414268811E-02 -0.39247355349E-02  0.27571143721E-04  0.17130000011E+03  0.17130000000E+03 0. -1.
      622    1    1    2    0    0 -0.30576847877E-02  0.43071330572E-02  0.34836486780E+01  0.34836733504E+01  0.12000000000E-01 0. -1.
</event>
<event>
 5   0  0.3564000E+09  0.9118800E+02  0.7818608E-02  0.1180000E+00
       11   -1    0    0    0    0  0.00000000000E+00  0.00000000000E+00  0.39999999673E+01  0.40000000000E+01  0.51109989000E-03 0.  1.
     -623   -1    0    0    0    0  0.00000000000E+00  0.00000000000E+00  0.12525980253E-10  0.17130000000E+03  0.17130000000E+03 0. -1.
       11    1    1    2    0    0  0.72746816319E-03  0.36432452610E-03  0.63998287862E+00  0.63998359986E+00  0.51109989000E-03 0.  1.
     -623    1    1    2    0    0  0.54472133814E-03 -0.13221988348E-03  0.22366915990E-04  0.17130000000E+03  0.17130000000E+03 0. -1.
      622    1    1    2    0    0 -0.12721895013E-02 -0.23210464262E-03  0.33599947218E+01  0.33600163992E+01  0.12000000000E-01 0.  1.
</event>
<event>
 5   0  0.3564000E+09  0.9118800E+02  0.7818608E-02  0.1180000E+00
       11   -1    0    0    0    0  0.00000000000E+00  0.00000000000E+00  0.39999999673E+01  0.40000000000E+01  0.51109989000E-03 0. -1.
     -623   -1    0    0    0    0  0.00000000000E+00  0.00000000000E+00  0.12525980253E-10  0.17130000000E+03  0.17130000000E+03 0. -1.
       11    1    1    2    0    0 -0.93025100457E-03 -0.80220520133E-03  0.52197167115E-02  0.53866097787E-02  0.51109989000E-03 0. -1.
     -623    1    1    2    0    0  0.12245996646E-02 -0.10236098920E-02  0.18532038486E-03  0.17130000001E+03  0.17130000000E+03 0. -1.
      622    1    1    2    0    0 -0.29434866004E-03  0.18258150934E-02  0.39945949303E+01  0.39946133827E+01  0.12000000000E-01 0. -1.
</event>
<event>
 5   0  0.3564000E+09  0.9118800E+02  0.7818608E-02  0.1180000E+00
       11   -1    0    0    0    0  0.00000000000E+00  0.00000000000E+00  0.39999999673E+01  0.40000000000E+01  0.51109989000E-03 0.  1.
     -623   -1    0    0    0    0  0.00000000000E+00  0.00000000000E+00  0.12525980253E-10  0.17130000000E+03  0.17130000000E+03 0.  1.
       11    1    1    2    0    0 -0.10949500198E-02  0.10856319590E-02  0.24389093883E+00  0.24389634842E+00  0.51109989000E-03 0.  1.
     -623    1    1    2    0    0 -0.91532076823E-04 -0.10246827219E-03  0.24861932357E-04  0.17130000000E+03  0.17130000000E+03 0.  1.
      622    1    1    2    0    0  0.11864820966E-02 -0.98316368676E-03  0.37560841666E+01  0.37561036515E+01  0.12000000000E-01 0.  1.
</event>
<event>
 5   0  0.3564000E+09  0.9118800E+02  0.7818608E-02  0.1180000E+00
       11   -1    0    0    0    0  0.00000000000E+00  0.00000000000E+00  0.39999999673E+01  0.40000000000E+01  0.51109989000E-03 0. -1.
     -623   -1    0    0    0    0  0.00000000000E+00  0.00000000000E+00  0.12525980253E-10  0.17130000000E+03  0.17130000000E+03 0.  1.
       11    1    1    2    0    0 -0.27854444509E-02 -0.19207690966E-03  0.37802828661E+00  0.37803894282E+00  0.51109989000E-03 0. -1.
     -623    1    1    2    0    0 -0.28285830111E-04  0.36763562991E-04  0.31598638945E-04  0.17130000000E+03  0.17130000000E+03 0.  1.
      622    1    1    2    0    0  0.28137302810E-02  0.15531334665E-03  0.36219400846E+01  0.36219610597E+01  0.12000000000E-01 0. -1.
</event>
<event>
 5   0  0.3564000E+09  0.9118800E+02  0.7818608E-02  0.1180000E+00
       11   -1    0    0    0    0  0.00000000000E+00  0.00000000000E+00  0.39999999673E+01  0.40000000000E+01  0.51109989000E-03 0.  1.
     -623   -1    0    0    0    0  0.00000000000E+00  0.00000000000E+00  0.12525980253E-10  0.17130000000E+03  0.17130000000E+03 0. -1.
       11    1    1    2    0    0 -0.52110910477E-03 -0.11448014886E-02  0.61224472362E+00  0.61224622902E+00  0.51109989000E-03 0.  1.
     -623    1    1    2    0    0 -0.92213133392E-04 -0.21424673573E-03  0.23054127414E-04  0.17130000000E+03  0.17130000000E+03 0. -1.
      622    1    1    2    0    0  0.61332223816E-03  0.13590482244E-02  0.33877321896E+01  0.33877537708E+01  0.12000000000E-01 0.  1.
</event>
<event>
 5   0  0.3564000E+09  0.9118800E+02  0.7818608E-02  0.1180000E+00
       11   -1    0    0    0    0  0.00000000000E+00  0.00000000000E+00  0.39999999673E+01  0.40000000000E+01  0.51109989000E-03 0. -1.
     -623   -1    0    0    0    0  0.00000000000E+00  0.00000000000E+00  0.12525980253E-10  0.17130000000E+03  0.17130000000E+03 0. -1.
       11    1    1    2    0    0 -0.25126058812E-02  0.62295820890E-03  0.95545277589E-02  0.99121888882E-02  0.51109989000E-03 0. -1.
     -623    1    1    2    0    0  0.31549774431E-03  0.10783908109E-02  0.37664498114E-03  0.17130000000E+03  0.17130000000E+03 0. -1.
      622    1    1    2    0    0  0.21971081369E-02 -0.17013490198E-02  0.39900687946E+01  0.39900878070E+01  0.12000000000E-01 0. -1.
</event>
<event>
 5   0  0.3564000E+09  0.9118800E+02  0.7818608E-02  0.1180000E+00
       11   -1    0    0    0    0  0.00000000000E+00  0.00000000000E+00  0.39999999673E+01  0.40000000000E+01  0.51109989000E-03 0. -1.
     -623   -1    0    0    0    0  0.00000000000E+00  0.00000000000E+00  0.12525980253E-10  0.17130000000E+03  0.17130000000E+03 0. -1.
       11    1    1    2    0    0 -0.60593235211E-03  0.58027935170E-04  0.98111341097E-01  0.98114560571E-01  0.51109989000E-03 0. -1.
     -623    1    1    2    0    0 -0.97708429645E-04 -0.21789358226E-03  0.21706384102E-04  0.17130000000E+03  0.17130000000E+03 0. -1.
      622    1    1    2    0    0  0.70364078172E-03  0.15986564702E-03  0.39018669185E+01  0.39018854379E+01  0.12000000000E-01 0. -1.
</event>
<event>
 5   0  0.3564000E+09  0.9118800E+02  0.7818608E-02  0.1180000E+00
       11   -1    0    0    0    0  0.00000000000E+00  0.00000000000E+00  0.39999999673E+01  0.40000000000E+01  0.51109989000E-03 0.  1.
     -623   -1    0    0    0    0  0.00000000000E+00  0.00000000000E+00  0.12525980253E-10  0.17130000000E+03  0.17130000000E+03 0.  1.
       11    1    1    2    0    0  0.10441661219E-02 -0.17184418735E-02  0.81081858588E-01  0.81108398705E-01  0.51109989000E-03 0.  1.
     -623    1    1    2    0    0 -0.64809270202E-02  0.89178756693E-03  0.48863464309E-04  0.17130000012E+03  0.17130000000E+03 0.  1.
      622    1    1    2    0    0  0.54367608863E-02  0.82665430825E-03  0.39188692379E+01  0.39188914689E+01  0.12000000000E-01 0.  1.
</event>
<event>
 5   0  0.3564000E+09  0.9118800E+02  0.7818608E-02  0.1180000E+00
       11   -1    0    0    0    0  0.00000000000E+00  0.00000000000E+00  0.39999999673E+01  0.40000000000E+01  0.51109989000E-03 0. -1.
     -623   -1    0    0    0    0  0.00000000000E+00  0.00000000000E+00  0.12525980253E-10  0.17130000000E+03  0.17130000000E+03 0. -1.
       11    1    1    2    0    0 -0.18890416938E-02  0.52808474284E-03  0.46657097000E+00  0.46657537293E+00  0.51109989000E-03 0. -1.
     -623    1    1    2    0    0  0.12702202198E-02 -0.68655418832E-04  0.24835959689E-04  0.17130000000E+03  0.17130000000E+03 0. -1.
      622    1    1    2    0    0  0.61882147522E-03 -0.45942932407E-03  0.35334041576E+01  0.35334246186E+01  0.12000000000E-01 0. -1.
</event>
<event>
 5   0  0.3564000E+09  0.9118800E+02  0.7818608E-02  0.1180000E+00
       11   -1    0    0    0    0  0.00000000000E+00  0.00000000000E+00  0.39999999673E+01  0.40000000000E+01  0.51109989000E-03 0. -1.
     -623   -1    0    0    0    0  0.00000000000E+00  0.00000000000E+00  0.12525980253E-10  0.17130000000E+03  0.17130000000E+03 0.  1.
       11    1    1    2    0    0  0.22786360959E-03  0.38006666095E-02  0.70725026476E+00  0.70726069820E+00  0.51109989000E-03 0. -1.
     -623    1    1    2    0    0  0.38160949660E-03 -0.93642083927E-03  0.33572319735E-04  0.17130000000E+03  0.17130000000E+03 0.  1.
      622    1    1    2    0    0 -0.60947310619E-03 -0.28642457702E-02  0.32927161303E+01  0.32927392988E+01  0.12000000000E-01 0. -1.
</event>
<event>
 5   0  0.3564000E+09  0.9118800E+02  0.7818608E-02  0.1180000E+00
       11   -1    0    0    0    0  0.00000000000E+00  0.00000000000E+00  0.39999999673E+01  0.40000000000E+01  0.51109989000E-03 0.  1.
     -623   -1    0    0    0    0  0.00000000000E+00  0.00000000000E+00  0.12525980253E-10  0.17130000000E+03  0.17130000000E+03 0.  1.
       11    1    1    2    0    0 -0.13211980475E-03 -0.63726446413E-04  0.36371689726E-01  0.36375576300E-01  0.51109989000E-03 0.  1.
     -623    1    1    2    0    0  0.10644391456E-03 -0.13644294786E-03  0.22024394330E-04  0.17130000000E+03  0.17130000000E+03 0.  1.
      622    1    1    2    0    0  0.25675890194E-04  0.20016939428E-03  0.39636062532E+01  0.39636244236E+01  0.12000000000E-01 0.  1.
</event>
<event>
 5   0  0.3564000E+09  0.9118800E+02  0.7818608E-02  0.1180000E+00
       11   -1    0    0    0    0  0.00000000000E+00  0.00000000000E+00  0.39999999673E+01  0.40000000000E+01  0.51109989000E-03 0.  1.
     -623   -1    0    0    0    0  0.00000000000E+00  0.00000000000E+00  0.12525980253E-10  0.17130000000E+03  0.17130000000E+03 0. -1.
       11    1    1    2    0    0  0.30789930309E-03 -0.27087202840E-02  0.16990681788E+00  0.16992945581E+00  0.51109989000E-03 0.  1.
     -623    1    1    2    0    0 -0.14640208438E-02  0.40547915816E-02  0.41869228314E-04  0.17130000005E+03  0.17130000000E+03 0. -1.
      622    1    1    2    0    0  0.11561215442E-02 -0.13460713071E-02  0.38300512897E+01  0.38300704993E+01  0.12000000000E-01 0.  1.
</event>
<event>
 5   0  0.3564000E+09  0.9118800E+02  0.7818608E-02  0.1180000E+00
       11   -1    0    0    0    0  0.00000000000E+00  0.00000000000E+00  0.39999999673E+01  0.40000000000E+01  0.51109989000E-03 0. -1.
     -623   -1    0    0    0    0  0.00000000000E+00  0.00000000000E+00  0.12525980253E-10  0.17130000000E+03  0.17130000000E+03 0.  1.
       11    1    1    2    0    0 -0.19273488161E-02  0.42918671031E-02  0.10331311359E+01  0.10331419748E+01  0.51109989000E-03 0. -1.
     -623    1    1    2    0    0 -0.88300203324E-04 -0.49573293135E-04  0.38792191887E-04  0.17130000000E+03  0.17130000000E+03 0.  1.
      622    1    1    2    0    0  0.20156490196E-02 -0.42422938098E-02  0.29668300484E+01  0.29668580344E+01  0.12000000000E-01 0. -1.
</event>
<event>
 5   0  0.3564000E+09  0.9118800E+02  0.7818608E-02  0.1180000E+00
       11   -1    0    0    0    0  0.00000000000E+00  0.00000000000E+00  0.39999999673E+01  0.40000000000E+01  0.51109989000E-03 0. -1.
     -623   -1    0    0    0    0  0.00000000000E+00  0.00000000000E+00  0.12525980253E-10  0.17130000000E+03  0.17130000000E+03 0. -1.
       11    1    1    2    0    0  0.10866708232E-01 -0.32585264183E-03  0.22422171998E+00  0.22448570659E+00  0.51109989000E-03 0. -1.
     -623    1    1    2    0    0 -0.76527683314E-03 -0.77355610018E-03  0.29670138911E-03  0.17130000000E+03  0.17130000000E+03 0. -1.
      622    1    1    2    0    0 -0.10101431399E-01  0.10994087420E-02  0.37754815459E+01  0.37755142896E+01  0.12000000000E-01 0. -1.
</event>
<event>
 5   0  0.3564000E+09  0.9118800E+02  0.7818608E-02  0.1180000E+00
       11   -1    0    0    0    0  0.00000000000E+00  0.00000000000E+00  0.39999999673E+01  0.40000000000E+01  0.51109989000E-03 0.  1.
     -623   -1    0    0    0    0  0.00000000000E+00  0.00000000000E+00  0.12525980253E-10  0.17130000000E+03  0.17130000000E+03 0.  1.
       11    1    1    2    0    0  0.21079194211E-04  0.16172255785E-03  0.11028339989E-02  0.12264030516E-02  0.51109989000E-03 0.  1.
     -623    1    1    2    0    0 -0.12907022332E-03 -0.51782420425E-04  0.14154505803E-03  0.17130000000E+03  0.17130000000E+03 0.  1.
      622    1    1    2    0    0  0.10799102911E-03 -0.10994013742E-03  0.39987555885E+01  0.39987735970E+01  0.12000000000E-01 0.  1.
</event>
<event>
 5   0  0.3564000E+09  0.9118800E+02  0.7818608E-02  0.1180000E+00
       11   -1    0    0    0    0  0.00000000000E+00  0.00000000000E+00  0.39999999673E+01  0.40000000000E+01  0.51109989000E-03 0.  1.
     -623   -1    0    0    0    0  0.00000000000E+00  0.00000000000E+00  0.12525980253E-10  0.17130000000E+03  0.17130000000E+03 0.  1.
       11    1    1    2    0    0  0.59128115427E-03 -0.73234694612E-03  0.11329355582E-01  0.11379871025E-01  0.51109989000E-03 0.  1.
     -623    1    1    2    0    0 -0.19958682853E-02  0.15799577802E-02  0.68890501829E-04  0.17130000002E+03  0.17130000000E+03 0.  1.
      622    1    1    2    0    0  0.14045871310E-02 -0.84761083412E-03  0.39886017213E+01  0.39886201100E+01  0.12000000000E-01 0.  1.
</event>
<event>
 5   0  0.3564000E+09  0.9118800E+02  0.7818608E-02  0.1180000E+00
       11   -1    0    0    0    0  0.00000000000E+00  0.00000000000E+00  0.39999999673E+01  0.40000000000E+01  0.51109989000E-03 0.  1.
     -623   -1    0    0    0    0  0.00000000000E+00  0.00000000000E+00  0.12525980253E-10  0.17130000000E+03  0.17130000000E+03 0. -1.
       11    1    1    2    0    0 -0.63929364666E-03  0.71025151143E-03  0.31491301804E+00  0.31491488264E+00  0.51109989000E-03 0.  1.
     -623    1    1    2    0    0 -0.96070937222E-03 -0.76865623063E-03  0.21722461202E-04  0.17130000000E+03  0.17130000000E+03 0. -1.
      622    1    1    2    0    0  0.16000030189E-02  0.58404719200E-04  0.36850652269E+01  0.36850851129E+01  0.12000000000E-01 0.  1.
</event>
<event>
 5   0  0.3564000E+09  0.9118800E+02  0.7818608E-02  0.1180000E+00
       11   -1    0    0    0    0  0.00000000000E+00  0.00000000000E+00  0.39999999673E+01  0.40000000000E+01  0.51109989000E-03 0.  1.
     -623   -1    0    0    0    0  0.00000000000E+00  0.00000000000E+00  0.12525980253E-10  0.17130000000E+03  0.17130000000E+03 0. -1.
       11    1    1    2    0    0 -0.28631631937E-02  0.31051211271E-03  0.22506915732E+00  0.22508816256E+00  0.51109989000E-03 0.  1.
     -623    1    1    2    0    0  0.92877478377E-03 -0.41837337480E-03  0.38546131709E-04  0.17130000000E+03  0.17130000000E+03 0. -1.
      622    1    1    2    0    0  0.19343884068E-02  0.10786126352E-03  0.37748922775E+01  0.37749118480E+01  0.12000000000E-01 0.  1.
</event>
<event>
 5   0  0.3564000E+09  0.9118800E+02  0.7818608E-02  0.1180000E+00
       11   -1    0    0    0    0  0.00000000000E+00  0.00000000000E+00  0.39999999673E+01  0.40000000000E+01  0.51109989000E-03 0.  1.
     -623   -1    0    0    0    0  0.00000000000E+00  0.00000000000E+00  0.12525980253E-10  0.17130000000E+03  0.17130000000E+03 0. -1.
       11    1    1    2    0    0 -0.14078764347E-02  0.16132917659E-03  0.32404085116E-01  0.32439082885E-01  0.51109989000E-03 0.  1.
     -623    1    1    2    0    0  0.28637488701E-03 -0.18409423018E-02  0.53636509602E-04  0.17130000001E+03  0.17130000000E+03 0. -1.
      622    1    1    2    0    0  0.11215015473E-02  0.16796131279E-02  0.39675422516E+01  0.39675609128E+01  0.12000000000E-01 0.  1.
</event>
<event>
 5   0  0.3564000E+09  0.9118800E+02  0.7818608E-02  0.1180000E+00
       11   -1    0    0    0    0  0.00000000000E+00  0.00000000000E+00  0.39999999673E+01  0.40000000000E+01  0.51109989000E-03 0.  1.
     -623   -1    0    0    0    0  0.00000000000E+00  0.00000000000E+00  0.12525980253E-10  0.17130000000E+03  0.17130000000E+03 0.  1.
       11    1    1    2    0    0 -0.22877408999E-03 -0.62440184348E-03  0.23984059457E-01  0.23998719643E-01  0.51109989000E-03 0. -1.
     -623    1    1    2    0    0 -0.61112532713E-04 -0.11613837644E-03  0.32815818327E-04  0.17130000000E+03  0.17130000000E+03 0.  1.
      622    1    1    2    0    0  0.28988662271E-03  0.74054021991E-03  0.39759830921E+01  0.39760012803E+01  0.12000000000E-01 0.  1.
</event>
<event>
 5   0  0.3564000E+09  0.9118800E+02  0.7818608E-02  0.1180000E+00
       11   -1    0    0    0    0  0.00000000000E+00  0.00000000000E+00  0.39999999673E+01  0.40000000000E+01  0.51109989000E-03 0.  1.
     -623   -1    0    0    0    0  0.00000000000E+00  0.00000000000E+00  0.12525980253E-10  0.17130000000E+03  0.17130000000E+03 0.  1.
       11    1    1    2    0    0  0.12102333472E-02 -0.13122310824E-02  0.84916782542E-01  0.84937081393E-01  0.51109989000E-03 0.  1.
     -623    1    1    2    0    0  0.68737351321E-04  0.81984394333E-04  0.39059002356E-04  0.17130000000E+03  0.17130000000E+03 0.  1.
      622    1    1    2    0    0 -0.12789706986E-02  0.12302466880E-02  0.39150441262E+01  0.39150629189E+01  0.12000000000E-01 0.  1.
</event>
<event>
 5   0  0.3564000E+09  0.9118800E+02  0.7818608E-02  0.1180000E+00
       11   -1    0    0    0    0  0.00000000000E+00  0.00000000000E+00  0.39999999673E+01  0.40000000000E+01  0.51109989000E-03 0.  1.
     -623   -1    0    0    0    0  0.00000000000E+00  0.00000000000E+00  0.12525980253E-10  0.17130000000E+03  0.17130000000E+03 0. -1.
       11    1    1    2    0    0  0.60923644118E-03  0.27359174678E-03  0.10213265162E+00  0.10213611394E+00  0.51109989000E-03 0. -1.
     -623    1    1    2    0    0 -0.84721783894E-03 -0.16240178206E-02  0.22152373400E-04  0.17130000001E+03  0.17130000000E+03 0. -1.
      622    1    1    2    0    0  0.23798139983E-03  0.13504260778E-02  0.38978451732E+01  0.38978638861E+01  0.12000000000E-01 0.  1.
</event>
<event>
 5   0  0.3564000E+09  0.9118800E+02  0.7818608E-02  0.1180000E+00
       11   -1    0    0    0    0  0.00000000000E+00  0.00000000000E+00  0.39999999673E+01  0.40000000000E+01  0.51109989000E-03 0.  1.
     -623   -1    0    0    0    0  0.00000000000E+00  0.00000000000E+00  0.12525980253E-10  0.17130000000E+03  0.17130000000E+03 0.  1.
       11    1    1    2    0    0  0.38833931214E-02  0.38829423499E-02  0.27594690982E+00  0.27600202217E+00  0.51109989000E-03 0.  1.
     -623    1    1    2    0    0 -0.14576417384E-03 -0.36545027575E-04  0.78275995739E-04  0.17130000000E+03  0.17130000000E+03 0.  1.
      622    1    1    2    0    0 -0.37376289476E-02 -0.38463973224E-02  0.37239747815E+01  0.37239979777E+01  0.12000000000E-01 0.  1.
</event>
<event>
 5   0  0.3564000E+09  0.9118800E+02  0.7818608E-02  0.1180000E+00
       11   -1    0    0    0    0  0.00000000000E+00  0.00000000000E+00  0.39999999673E+01  0.40000000000E+01  0.51109989000E-03 0.  1.
     -623   -1    0    0    0    0  0.00000000000E+00  0.00000000000E+00  0.12525980253E-10  0.17130000000E+03  0.17130000000E+03 0. -1.
       11    1    1    2    0    0  0.61854410807E-04  0.84271464120E-03  0.10034140306E-01  0.10082618148E-01  0.51109989000E-03 0.  1.
     -623    1    1    2    0    0 -0.48020707098E-02 -0.43855860709E-02  0.71002975413E-04  0.17130000012E+03  0.17130000000E+03 0. -1.
      622    1    1    2    0    0  0.47402163056E-02  0.35428714357E-02  0.39898948296E+01  0.39899172639E+01  0.12000000000E-01 0.  1.
</event>
<event>
 5   0  0.3564000E+09  0.9118800E+02  0.7818608E-02  0.1180000E+00
       11   -1    0    0    0    0  0.00000000000E+00  0.00000000000E+00  0.39999999673E+01  0.40000000000E+01  0.51109989000E-03 0.  1.
     -623   -1    0    0    0    0  0.00000000000E+00  0.00000000000E+00  0.12525980253E-10  0.17130000000E+03  0.17130000000E+03 0. -1.
       11    1    1    2    0    0 -0.16870163890E-02 -0.54819634015E-03  0.26573055731E-01  0.26637099219E-01  0.51109989000E-03 0.  1.
     -623    1    1    2    0    0 -0.59266697200E-04  0.30144182532E-03  0.82523262924E-04  0.17130000000E+03  0.17130000000E+03 0. -1.
      622    1    1    2    0    0  0.17462830862E-02  0.24675451483E-03  0.39733443884E+01  0.39733629005E+01  0.12000000000E-01 0.  1.
</event>
<event>
 5   0  0.3564000E+09  0.9118800E+02  0.7818608E-02  0.1180000E+00
       11   -1    0    0    0    0  0.00000000000E+00  0.00000000000E+00  0.39999999673E+01  0.40000000000E+01  0.51109989000E-03 0. -1.
     -623   -1    0    0    0    0  0.00000000000E+00  0.00000000000E+00  0.12525980253E-10  0.17130000000E+03  0.17130000000E+03 0. -1.
       11    1    1    2    0    0  0.16725627090E-02 -0.72178151315E-03  0.83643961684E-01  0.83665357121E-01  0.51109989000E-03 0. -1.
     -623    1    1    2    0    0 -0.36775290254E-03 -0.39925493091E-03  0.40126052521E-04  0.17130000000E+03  0.17130000000E+03 0. -1.
      622    1    1    2    0    0 -0.13048098065E-02  0.11210364441E-02  0.39163158796E+01  0.39163346420E+01  0.12000000000E-01 0. -1.
</event>
<event>
 5   0  0.3564000E+09  0.9118800E+02  0.7818608E-02  0.1180000E+00
       11   -1    0    0    0    0  0.00000000000E+00  0.00000000000E+00  0.39999999673E+01  0.40000000000E+01  0.51109989000E-03 0.  1.
     -623   -1    0    0    0    0  0.00000000000E+00  0.00000000000E+00  0.12525980253E-10  0.17130000000E+03  0.17130000000E+03 0. -1.
       11    1    1    2    0    0  0.47756375445E-03  0.98317831382E-05  0.45201446875E+00  0.45201501009E+00  0.51109989000E-03 0.  1.
     -623    1    1    2    0    0 -0.22558928911E-03 -0.18803127659E-03  0.20815641771E-04  0.17130000000E+03  0.17130000000E+03 0. -1.
      622    1    1    2    0    0 -0.25197446490E-03  0.17819949382E-03  0.35479646909E+01  0.35479849976E+01  0.12000000000E-01 0.  1.
</event>
<event>
 5   0  0.3564000E+09  0.9118800E+02  0.7818608E-02  0.1180000E+00
       11   -1    0    0    0    0  0.00000000000E+00  0.00000000000E+00  0.39999999673E+01  0.40000000000E+01  0.51109989000E-03 0. -1.
     -623   -1    0    0    0    0  0.00000000000E+00  0.00000000000E+00  0.12525980253E-10  0.17130000000E+03  0.17130000000E+03 0. -1.
       11    1    1    2    0    0  0.16829113558E-01 -0.86599278800E-02  0.10115559855E+01  0.10117331597E+01  0.51109989000E-03 0. -1.
     -623    1    1    2    0    0 -0.19417825457E-02  0.11345293115E-01  0.23991372075E-03  0.17130000039E+03  0.17130000000E+03 0. -1.
      622    1    1    2    0    0 -0.14887331012E-01 -0.26853652352E-02  0.29882040680E+01  0.29882664533E+01  0.12000000000E-01 0. -1.
</event>
<event>
 5   0  0.3564000E+09  0.9118800E+02  0.7818608E-02  0.1180000E+00
       11   -1    0    0    0    0  0.00000000000E+00  0.00000000000E+00  0.39999999673E+01  0.40000000000E+01  0.51109989000E-03 0. -1.
     -623   -1    0    0    0    0  0.00000000000E+00  0.00000000000E+00  0.12525980253E-10  0.17130000000E+03  0.17130000000E+03 0.  1.
       11    1    1    2    0    0 -0.17249124224E-01  0.35641338057E-02  0.33553343088E+00  0.33599580325E+00  0.51109989000E-03 0. -1.
     -623    1    1    2    0    0  0.13051515237E-01 -0.59379660831E-03  0.48609781471E-03  0.17130000050E+03  0.17130000000E+03 0.  1.
      622    1    1    2    0    0  0.41976089878E-02 -0.29703371974E-02  0.36639804387E+01  0.36640036978E+01  0.12000000000E-01 0. -1.
</event>
<event>
 5   0  0.3564000E+09  0.9118800E+02  0.7818608E-02  0.1180000E+00
       11   -1    0    0    0    0  0.00000000000E+00  0.00000000000E+00  0.39999999673E+01  0.40000000000E+01  0.51109989000E-03 0. -1.
     -623   -1    0    0    0    0  0.00000000000E+00  0.00000000000E+00  0.12525980253E-10  0.17130000000E+03  0.17130000000E+03 0. -1.
       11    1    1    2    0    0 -0.10631723993E-02  0.52285363529E-02  0.52348247715E-01  0.52621936394E-01  0.51109989000E-03 0. -1.
     -623    1    1    2    0    0  0.32900340180E-03  0.16051723650E-02  0.29788770318E-03  0.17130000001E+03  0.17130000000E+03 0. -1.
      622    1    1    2    0    0  0.73416899746E-03 -0.68337087181E-02  0.39473538325E+01  0.39473780561E+01  0.12000000000E-01 0. -1.
</event>
<event>
 5   0  0.3564000E+09  0.9118800E+02  0.7818608E-02  0.1180000E+00
       11   -1    0    0    0    0  0.00000000000E+00  0.00000000000E+00  0.39999999673E+01  0.40000000000E+01  0.51109989000E-03 0. -1.
     -623   -1    0    0    0    0  0.00000000000E+00  0.00000000000E+00  0.12525980253E-10  0.17130000000E+03  0.17130000000E+03 0. -1.
       11    1    1    2    0    0  0.20073088237E-02 -0.23631479601E-02  0.48057656066E-02  0.57419823539E-02  0.51109989000E-03 0. -1.
     -623    1    1    2    0    0 -0.24003474779E-02  0.22673216229E-02  0.95426499170E-03  0.17130000003E+03  0.17130000000E+03 0. -1.
      622    1    1    2    0    0  0.39303865415E-03  0.95826337222E-04  0.39942399368E+01  0.39942579832E+01  0.12000000000E-01 0. -1.
</event>
<event>
 5   0  0.3564000E+09  0.9118800E+02  0.7818608E-02  0.1180000E+00
       11   -1    0    0    0    0  0.00000000000E+00  0.00000000000E+00  0.39999999673E+01  0.40000000000E+01  0.51109989000E-03 0. -1.
     -623   -1    0    0    0    0  0.00000000000E+00  0.00000000000E+00  0.12525980253E-10  0.17130000000E+03  0.17130000000E+03 0. -1.
       11    1    1    2    0    0 -0.64549864638E-02 -0.64154750179E-02  0.56477924642E+00  0.56485279815E+00  0.51109989000E-03 0. -1.
     -623    1    1    2    0    0  0.11046756618E-03 -0.20285424381E-03  0.10671382648E-03  0.17130000000E+03  0.17130000000E+03 0. -1.
      622    1    1    2    0    0  0.63445188975E-02  0.66183292619E-02  0.34351140112E+01  0.34351472057E+01  0.12000000000E-01 0. -1.
</event>
<event>
 5   0  0.3564000E+09  0.9118800E+02  0.7818608E-02  0.1180000E+00
       11   -1    0    0    0    0  0.00000000000E+00  0.00000000000E+00  0.39999999673E+01  0.40000000000E+01  0.51109989000E-03 0.  1.
     -623   -1    0    0    0    0  0.00000000000E+00  0.00000000000E+00  0.12525980253E-10  0.17130000000E+03  0.17130000000E+03 0.  1.
       11    1    1    2    0    0 -0.13515895460E-02  0.20697106779E-03  0.32983841007E-01  0.33016126696E-01  0.51109989000E-03 0.  1.
     -623    1    1    2    0    0  0.21723414842E-02  0.17546724912E-02  0.50995584778E-04  0.17130000002E+03  0.17130000000E+03 0.  1.
      622    1    1    2    0    0 -0.82075193745E-03 -0.19616435584E-02  0.39669651295E+01  0.39669838493E+01  0.12000000000E-01 0.  1.
</event>
<event>
 5   0  0.3564000E+09  0.9118800E+02  0.7818608E-02  0.1180000E+00
       11   -1    0    0    0    0  0.00000000000E+00  0.00000000000E+00  0.39999999673E+01  0.40000000000E+01  0.51109989000E-03 0. -1.
     -623   -1    0    0    0    0  0.00000000000E+00  0.00000000000E+00  0.12525980253E-10  0.17130000000E+03  0.17130000000E+03 0. -1.
       11    1    1    2    0    0 -0.68717806086E-03 -0.21156634601E-02  0.73539793484E-01  0.73575204328E-01  0.51109989000E-03 0. -1.
     -623    1    1    2    0    0  0.36123499785E-03 -0.40629276050E-03  0.54539873350E-04  0.17130000000E+03  0.17130000000E+03 0. -1.
      622    1    1    2    0    0  0.32594306301E-03  0.25219562206E-02  0.39264056340E+01  0.39264247948E+01  0.12000000000E-01 0. -1.
</event>
<event>
 5   0  0.3564000E+09  0.9118800E+02  0.7818608E-02  0.1180000E+00
       11   -1    0    0    0    0  0.00000000000E+00  0.00000000000E+00  0.39999999673E+01  0.40000000000E+01  0.51109989000E-03 0.  1.
     -623   -1    0    0    0    0  0.00000000000E+00  0.00000000000E+00  0.12525980253E-10  0.17130000000E+03  0.17130000000E+03 0.  1.
       11    1    1    2    0    0  0.40656371963E-02 -0.10929554585E-03  0.58086653266E-01  0.58231107341E-01  0.51109989000E-03 0.  1.
     -623    1    1    2    0    0 -0.37224175586E-02  0.96611095299E-03  0.16283869948E-03  0.17130000004E+03  0.17130000000E+03 0.  1.
      622    1    1    2    0    0 -0.34321963684E-03 -0.85681540735E-03  0.39417504762E+01  0.39417688503E+01  0.12000000000E-01 0.  1.
</event>
<event>
 5   0  0.3564000E+09  0.9118800E+02  0.7818608E-02  0.1180000E+00
       11   -1    0    0    0    0  0.00000000000E+00  0.00000000000E+00  0.39999999673E+01  0.40000000000E+01  0.51109989000E-03 0.  1.
     -623   -1    0    0    0    0  0.00000000000E+00  0.00000000000E+00  0.12525980253E-10  0.17130000000E+03  0.17130000000E+03 0.  1.
       11    1    1    2    0    0 -0.30151749351E-02  0.43749401045E-02  0.37229316552E+00  0.37233142991E+00  0.51109989000E-03 0.  1.
     -623    1    1    2    0    0  0.43873931348E-03  0.18341335307E-03  0.61858772548E-04  0.17130000000E+03  0.17130000000E+03 0.  1.
      622    1    1    2    0    0  0.25764356215E-02 -0.45583534577E-02  0.36276449442E+01  0.36276685705E+01  0.12000000000E-01 0.  1.
</event>
<event>
 5   0  0.3564000E+09  0.9118800E+02  0.7818608E-02  0.1180000E+00
       11   -1    0    0    0    0  0.00000000000E+00  0.00000000000E+00  0.39999999673E+01  0.40000000000E+01  0.51109989000E-03 0.  1.
     -623   -1    0    0    0    0  0.00000000000E+00  0.00000000000E+00  0.12525980253E-10  0.17130000000E+03  0.17130000000E+03 0. -1.
       11    1    1    2    0    0 -0.10017204643E-02 -0.10123451121E-01  0.13100638975E+00  0.13140176210E+00  0.51109989000E-03 0.  1.
     -623    1    1    2    0    0 -0.46409419817E-02  0.41466471498E-02  0.42279685374E-03  0.17130000011E+03  0.17130000000E+03 0. -1.
      622    1    1    2    0    0  0.56426624460E-02  0.59768039712E-02  0.38685707808E+01  0.38685981243E+01  0.12000000000E-01 0.  1.
</event>
<event>
 5   0  0.3564000E+09  0.9118800E+02  0.7818608E-02  0.1180000E+00
       11   -1    0    0    0    0  0.00000000000E+00  0.00000000000E+00  0.39999999673E+01  0.40000000000E+01  0.51109989000E-03 0.  1.
     -623   -1    0    0    0    0  0.00000000000E+00  0.00000000000E+00  0.12525980253E-10  0.17130000000E+03  0.17130000000E+03 0. -1.
       11    1    1    2    0    0  0.29536984766E-03 -0.15607047271E-04  0.14033047435E-01  0.14045466541E-01  0.51109989000E-03 0.  1.
     -623    1    1    2    0    0 -0.33108171019E-03  0.62637240244E-03  0.30498355173E-04  0.17130000000E+03  0.17130000000E+03 0. -1.
      622    1    1    2    0    0  0.35711862597E-04 -0.61076535531E-03  0.39859364225E+01  0.39859545329E+01  0.12000000000E-01 0.  1.
</event>
<event>
 5   0  0.3564000E+09  0.9118800E+02  0.7818608E-02  0.1180000E+00
       11   -1    0    0    0    0  0.00000000000E+00  0.00000000000E+00  0.39999999673E+01  0.40000000000E+01  0.51109989000E-03 0. -1.
     -623   -1    0    0    0    0  0.00000000000E+00  0.00000000000E+00  0.12525980253E-10  0.17130000000E+03  0.17130000000E+03 0. -1.
       11    1    1    2    0    0 -0.12645727809E-02  0.70908401193E-03  0.40327922951E-01  0.40357211704E-01  0.51109989000E-03 0. -1.
     -623    1    1    2    0    0 -0.66224277526E-04 -0.18423576480E-03  0.47698150616E-04  0.17130000000E+03  0.17130000000E+03 0. -1.
      622    1    1    2    0    0  0.13307970584E-02 -0.52484824712E-03  0.39596243463E+01  0.39596427882E+01  0.12000000000E-01 0. -1.
</event>
<event>
 5   0  0.3564000E+09  0.9118800E+02  0.7818608E-02  0.1180000E+00
       11   -1    0    0    0    0  0.00000000000E+00  0.00000000000E+00  0.39999999673E+01  0.40000000000E+01  0.51109989000E-03 0. -1.
     -623   -1    0    0    0    0  0.00000000000E+00  0.00000000000E+00  0.12525980253E-10  0.17130000000E+03  0.17130000000E+03 0. -1.
       11    1    1    2    0    0 -0.27938144187E-02 -0.11791419008E-03  0.17628279811E+00  0.17630571583E+00  0.51109989000E-03 0. -1.
     -623    1    1    2    0    0  0.17485844873E-02 -0.11085931428E-02  0.42067175435E-04  0.17130000001E+03  0.17130000000E+03 0. -1.
      622    1    1    2    0    0  0.10452299332E-02  0.12265073317E-02  0.38236750978E+01  0.38236942674E+01  0.12000000000E-01 0. -1.
</event>
<event>
 5   0  0.3564000E+09  0.9118800E+02  0.7818608E-02  0.1180000E+00
       11   -1    0    0    0    0  0.00000000000E+00  0.00000000000E+00  0.39999999673E+01  0.40000000000E+01  0.51109989000E-03 0.  1.
     -623   -1    0    0    0    0  0.00000000000E+00  0.00000000000E+00  0.12525980253E-10  0.17130000000E+03  0.17130000000E+03 0.  1.
       11    1    1    2    0    0 -0.62140017581E-03 -0.20579515144E-02  0.26541670901E-01  0.26633490570E-01  0.51109989000E-03 0.  1.
     -623    1    1    2    0    0  0.28571413146E-03  0.21051741074E-02  0.10993539409E-03  0.17130000001E+03  0.17130000000E+03 0.  1.
      622    1    1    2    0    0  0.33568604450E-03 -0.47222591942E-04  0.39733483590E+01  0.39733664941E+01  0.12000000000E-01 0.  1.
</event>
<event>
 5   0  0.3564000E+09  0.9118800E+02  0.7818608E-02  0.1180000E+00
       11   -1    0    0    0    0  0.00000000000E+00  0.00000000000E+00  0.39999999673E+01  0.40000000000E+01  0.51109989000E-03 0.  1.
     -623   -1    0    0    0    0  0.00000000000E+00  0.00000000000E+00  0.12525980253E-10  0.17130000000E+03  0.17130000000E+03 0.  1.
       11    1    1    2    0    0 -0.55426470559E-03 -0.32395082251E-03  0.60195571808E-02  0.60752321149E-02  0.51109989000E-03 0.  1.
     -623    1    1    2    0    0  0.12940069782E-02 -0.24252170879E-03  0.73783469051E-04  0.17130000001E+03  0.17130000000E+03 0.  1.
      622    1    1    2    0    0 -0.73974227389E-03  0.56647253154E-03  0.39939066307E+01  0.39939247668E+01  0.12000000000E-01 0.  1.
</event>
<event>
 5   0  0.3564000E+09  0.9118800E+02  0.7818608E-02  0.1180000E+00
       11   -1    0    0    0    0  0.00000000000E+00  0.00000000000E+00  0.39999999673E+01  0.40000000000E+01  0.51109989000E-03 0.  1.
     -623   -1    0    0    0    0  0.00000000000E+00  0.00000000000E+00  0.12525980253E-10  0.17130000000E+03  0.17130000000E+03 0. -1.
       11    1    1    2    0    0 -0.27453379966E-02  0.14929495407E-02  0.21019450249E+00  0.21021835286E+00  0.51109989000E-03 0.  1.
     -623    1    1    2    0    0 -0.17195579780E-04  0.87818031770E-03  0.44567129838E-04  0.17130000000E+03  0.17130000000E+03 0. -1.
      622    1    1    2    0    0  0.27625335764E-02 -0.23711298601E-02  0.37897609056E+01  0.37897816527E+01  0.12000000000E-01 0.  1.
</event>
<event>
 5   0  0.3564000E+09  0.9118800E+02  0.7818608E-02  0.1180000E+00
       11   -1    0    0    0    0  0.00000000000E+00  0.00000000000E+00  0.39999999673E+01  0.40000000000E+01  0.51109989000E-03 0.  1.
     -623   -1    0    0    0    0  0.00000000000E+00  0.00000000000E+00  0.12525980253E-10  0.17130000000E+03  0.17130000000E+03 0.  1.
       11    1    1    2    0    0 -0.39882448850E-04 -0.41031240489E-04  0.56209984857E-01  0.56212337547E-01  0.51109989000E-03 0.  1.
     -623    1    1    2    0    0 -0.86226340939E-05  0.14623667533E-03  0.20578419064E-04  0.17130000000E+03  0.17130000000E+03 0.  1.
      622    1    1    2    0    0  0.48505082944E-04 -0.10520543484E-03  0.39437694041E+01  0.39437876624E+01  0.12000000000E-01 0.  1.
</event>
<event>
 5   0  0.3564000E+09  0.9118800E+02  0.7818608E-02  0.1180000E+00
       11   -1    0    0    0    0  0.00000000000E+00  0.00000000000E+00  0.39999999673E+01  0.40000000000E+01  0.51109989000E-03 0. -1.
     -623   -1    0    0    0    0  0.00000000000E+00  0.00000000000E+00  0.12525980253E-10  0.17130000000E+03  0.17130000000E+03 0.  1.
       11    1    1    2    0    0  0.47378271034E-03 -0.80633808921E-04  0.14739783925E-01  0.14756470618E-01  0.51109989000E-03 0. -1.
     -623    1    1    2    0    0 -0.67086809441E-04 -0.10337590056E-03  0.34745792224E-04  0.17130000000E+03  0.17130000000E+03 0.  1.
      622    1    1    2    0    0 -0.40669590069E-03  0.18400970981E-03  0.39852254503E+01  0.39852435420E+01  0.12000000000E-01 0. -1.
</event>
<event>
 5   0  0.3564000E+09  0.9118800E+02  0.7818608E-02  0.1180000E+00
       11   -1    0    0    0    0  0.00000000000E+00  0.00000000000E+00  0.39999999673E+01  0.40000000000E+01  0.51109989000E-03 0. -1.
     -623   -1    0    0    0    0  0.00000000000E+00  0.00000000000E+00  0.12525980253E-10  0.17130000000E+03  0.17130000000E+03 0. -1.
       11    1    1    2    0    0  0.10165376805E-03  0.65544040374E-03  0.60845107361E+00  0.60845164979E+00  0.51109989000E-03 0. -1.
     -623    1    1    2    0    0  0.33892697698E-03  0.64145933407E-03  0.22050969427E-04  0.17130000000E+03  0.17130000000E+03 0. -1.
      622    1    1    2    0    0 -0.44058074477E-03 -0.12968997373E-02  0.33915268398E+01  0.33915483457E+01  0.12000000000E-01 0. -1.
</event>
<event>
 5   0  0.3564000E+09  0.9118800E+02  0.7818608E-02  0.1180000E+00
       11   -1    0    0    0    0  0.00000000000E+00  0.00000000000E+00  0.39999999673E+01  0.40000000000E+01  0.51109989000E-03 0.  1.
     -623   -1    0    0    0    0  0.00000000000E+00  0.00000000000E+00  0.12525980253E-10  0.17130000000E+03  0.17130000000E+03 0.  1.
       11    1    1    2    0    0 -0.57166828692E-02  0.77865209608E-02  0.72931642163E+00  0.72938056902E+00  0.51109989000E-03 0.  1.
     -623    1    1    2    0    0 -0.16252946716E-02  0.12707876197E-02  0.10692357361E-03  0.17130000001E+03  0.17130000000E+03 0.  1.
      622    1    1    2    0    0  0.73419775409E-02 -0.90573085804E-02  0.32705766222E+01  0.32706194185E+01  0.12000000000E-01 0.  0.
</event>
<event>
 5   0  0.3564000E+09  0.9118800E+02  0.7818608E-02  0.1180000E+00
       11   -1    0    0    0    0  0.00000000000E+00  0.00000000000E+00  0.39999999673E+01  0.40000000000E+01  0.51109989000E-03 0. -1.
     -623   -1    0    0    0    0  0.00000000000E+00  0.00000000000E+00  0.12525980253E-10  0.17130000000E+03  0.17130000000E+03 0. -1.
       11    1    1    2    0    0 -0.14277380449E-01  0.52895788346E-02  0.11399392049E+01  0.11400409972E+01  0.51109989000E-03 0. -1.
     -623    1    1    2    0    0 -0.26091616327E-03 -0.15445002633E-02  0.16634683686E-03  0.17130000001E+03  0.17130000000E+03 0. -1.
      622    1    1    2    0    0  0.14538296612E-01 -0.37450785707E-02  0.28598944172E+01  0.28599589971E+01  0.12000000000E-01 0. -1.
</event>
<event>
 5   0  0.3564000E+09  0.9118800E+02  0.7818608E-02  0.1180000E+00
       11   -1    0    0    0    0  0.00000000000E+00  0.00000000000E+00  0.39999999673E+01  0.40000000000E+01  0.51109989000E-03 0. -1.
     -623   -1    0    0    0    0  0.00000000000E+00  0.00000000000E+00  0.12525980253E-10  0.17130000000E+03  0.17130000000E+03 0. -1.
       11    1    1    2    0    0  0.10587686103E-02 -0.68743262911E-03  0.10208521039E+00  0.10209429445E+00  0.51109989000E-03 0.  1.
     -623    1    1    2    0    0 -0.21960557009E-02  0.38937961298E-02  0.29065924353E-04  0.17130000006E+03  0.17130000000E+03 0. -1.
      622    1    1    2    0    0  0.11372870965E-02 -0.32063635113E-02  0.38978857019E+01  0.38979056581E+01  0.12000000000E-01 0. -1.
</event>
<event>
 5   0  0.3564000E+09  0.9118800E+02  0.7818608E-02  0.1180000E+00
       11   -1    0    0    0    0  0.00000000000E+00  0.00000000000E+00  0.39999999673E+01  0.40000000000E+01  0.51109989000E-03 0.  1.
     -623   -1    0    0    0    0  0.00000000000E+00  0.00000000000E+00  0.12525980253E-10  0.17130000000E+03  0.17130000000E+03 0. -1.
       11    1    1    2    0    0 -0.33860883673E-03 -0.31702427085E-04  0.56990134028E-01  0.56993440479E-01  0.51109989000E-03 0.  1.
     -623    1    1    2    0    0 -0.23866201371E-04  0.11141319199E-04  0.21550748683E-04  0.17130000000E+03  0.17130000000E+03 0. -1.
      622    1    1    2    0    0  0.36247503811E-03  0.20561107887E-04  0.39429882826E+01  0.39430065595E+01  0.12000000000E-01 0.  1.
</event>
<event>
 5   0  0.3564000E+09  0.9118800E+02  0.7818608E-02  0.1180000E+00
       11   -1    0    0    0    0  0.00000000000E+00  0.00000000000E+00  0.39999999673E+01  0.40000000000E+01  0.51109989000E-03 0. -1.
     -623   -1    0    0    0    0  0.00000000000E+00  0.00000000000E+00  0.12525980253E-10  0.17130000000E+03  0.17130000000E+03 0.  1.
       11    1    1    2    0    0  0.15050895565E-03  0.50334237764E-03  0.30650301847E-02  0.31514501913E-02  0.51109989000E-03 0. -1.
     -623    1    1    2    0    0  0.10493711765E-02 -0.54762373541E-03  0.10458607344E-03  0.17130000000E+03  0.17130000000E+03 0.  1.
      622    1    1    2    0    0 -0.11998801322E-02  0.44281357772E-04  0.39968303511E+01  0.39968485457E+01  0.12000000000E-01 0. -1.
</event>
<event>
 5   0  0.3564000E+09  0.9118800E+02  0.7818608E-02  0.1180000E+00
       11   -1    0    0    0    0  0.00000000000E+00  0.00000000000E+00  0.39999999673E+01  0.40000000000E+01  0.51109989000E-03 0. -1.
     -623   -1    0    0    0    0  0.00000000000E+00  0.00000000000E+00  0.12525980253E-10  0.17130000000E+03  0.17130000000E+03 0. -1.
       11    1    1    2    0    0 -0.33372187544E-03  0.43104398834E-02  0.95135433068E+00  0.95136429142E+00  0.51109989000E-03 0. -1.
     -623    1    1    2    0    0  0.31307803972E-03  0.87669830888E-03  0.37960813194E-04  0.17130000000E+03  0.17130000000E+03 0. -1.
      622    1    1    2    0    0  0.20643834626E-04 -0.51871381953E-02  0.30486076899E+01  0.30486357200E+01  0.12000000000E-01 0.  0.
</event>
<event>
 5   0  0.3564000E+09  0.9118800E+02  0.7818608E-02  0.1180000E+00
       11   -1    0    0    0    0  0.00000000000E+00  0.00000000000E+00  0.39999999673E+01  0.40000000000E+01  0.51109989000E-03 0. -1.
     -623   -1    0    0    0    0  0.00000000000E+00  0.00000000000E+00  0.12525980253E-10  0.17130000000E+03  0.17130000000E+03 0. -1.
       11    1    1    2    0    0  0.24816738076E-02  0.63103648140E-03  0.27275494503E+00  0.27276744339E+00  0.51109989000E-03 0. -1.
     -623    1    1    2    0    0 -0.28896889871E-02  0.59867543717E-02  0.37809433068E-04  0.17130000013E+03  0.17130000000E+03 0. -1.
      622    1    1    2    0    0  0.40801517953E-03 -0.66177908531E-02  0.37272072129E+01  0.37272324276E+01  0.12000000000E-01 0.  0.
</event>
<event>
 5   0  0.3564000E+09  0.9118800E+02  0.7818608E-02  0.1180000E+00
       11   -1    0    0    0    0  0.00000000000E+00  0.00000000000E+00  0.39999999673E+01  0.40000000000E+01  0.51109989000E-03 0. -1.
     -623   -1    0    0    0    0  0.00000000000E+00  0.00000000000E+00  0.12525980253E-10  0.17130000000E+03  0.17130000000E+03 0.  1.
       11    1    1    2    0    0  0.13210379238E-02  0.79305417911E-03  0.52964897104E-02  0.55396843301E-02  0.51109989000E-03 0. -1.
     -623    1    1    2    0    0 -0.48583948218E-02 -0.25107319696E-02  0.26321008616E-03  0.17130000009E+03  0.17130000000E+03 0.  1.
      622    1    1    2    0    0  0.35373568992E-02  0.17176777910E-02  0.39944402685E+01  0.39944602291E+01  0.12000000000E-01 0. -1.
</event>
<event>
 5   0  0.3564000E+09  0.9118800E+02  0.7818608E-02  0.1180000E+00
       11   -1    0    0    0    0  0.00000000000E+00  0.00000000000E+00  0.39999999673E+01  0.40000000000E+01  0.51109989000E-03 0. -1.
     -623   -1    0    0    0    0  0.00000000000E+00  0.00000000000E+00  0.12525980253E-10  0.17130000000E+03  0.17130000000E+03 0. -1.
       11    1    1    2    0    0 -0.18196755822E-02  0.58279853024E-02  0.67936162128E+00  0.67938924802E+00  0.51109989000E-03 0. -1.
     -623    1    1    2    0    0 -0.59346666608E-04 -0.12422512559E-03  0.54707298014E-04  0.17130000000E+03  0.17130000000E+03 0. -1.
      622    1    1    2    0    0  0.18790222489E-02 -0.57037601766E-02  0.33205836472E+01  0.33206107603E+01  0.12000000000E-01 0.  0.
</event>
<event>
 5   0  0.3564000E+09  0.9118800E+02  0.7818608E-02  0.1180000E+00
       11   -1    0    0    0    0  0.00000000000E+00  0.00000000000E+00  0.39999999673E+01  0.40000000000E+01  0.51109989000E-03 0.  1.
     -623   -1    0    0    0    0  0.00000000000E+00  0.00000000000E+00  0.12525980253E-10  0.17130000000E+03  0.17130000000E+03 0. -1.
       11    1    1    2    0    0  0.26877013373E-02 -0.41659011235E-02  0.76003857199E+00  0.76005491289E+00  0.51109989000E-03 0.  1.
     -623    1    1    2    0    0  0.10159141164E-02  0.15108917601E-03  0.43138372387E-04  0.17130000000E+03  0.17130000000E+03 0. -1.
      622    1    1    2    0    0 -0.37036154527E-02  0.40148119476E-02  0.32399182529E+01  0.32399450799E+01  0.12000000000E-01 0.  1.
</event>
<event>
 5   0  0.3564000E+09  0.9118800E+02  0.7818608E-02  0.1180000E+00
       11   -1    0    0    0    0  0.00000000000E+00  0.00000000000E+00  0.39999999673E+01  0.40000000000E+01  0.51109989000E-03 0. -1.
     -623   -1    0    0    0    0  0.00000000000E+00  0.00000000000E+00  0.12525980253E-10  0.17130000000E+03  0.17130000000E+03 0. -1.
       11    1    1    2    0    0  0.47921560305E-02  0.27193007849E-02  0.45127484936E+00  0.45130877483E+00  0.51109989000E-03 0. -1.
     -623    1    1    2    0    0  0.22628565903E-03  0.46050882949E-03  0.59155966984E-04  0.17130000000E+03  0.17130000000E+03 0. -1.
      622    1    1    2    0    0 -0.50184416895E-02 -0.31798096144E-02  0.35486659620E+01  0.35486912244E+01  0.12000000000E-01 0. -1.
</event>
<event>
 5   0  0.3564000E+09  0.9118800E+02  0.7818608E-02  0.1180000E+00
       11   -1    0    0    0    0  0.00000000000E+00  0.00000000000E+00  0.39999999673E+01  0.40000000000E+01  0.51109989000E-03 0.  1.
     -623   -1    0    0    0    0  0.00000000000E+00  0.00000000000E+00  0.12525980253E-10  0.17130000000E+03  0.17130000000E+03 0.  1.
       11    1    1    2    0    0  0.62619271983E-02  0.29028543678E-02  0.38372148489E+00  0.38378389424E+00  0.51109989000E-03 0.  1.
     -623    1    1    2    0    0 -0.10563357239E-02 -0.61891785430E-03  0.86759516205E-04  0.17130000000E+03  0.17130000000E+03 0.  1.
      622    1    1    2    0    0 -0.52055914744E-02 -0.22839365135E-02  0.36161917230E+01  0.36162161014E+01  0.12000000000E-01 0.  0.
</event>
<event>
 5   0  0.3564000E+09  0.9118800E+02  0.7818608E-02  0.1180000E+00
       11   -1    0    0    0    0  0.00000000000E+00  0.00000000000E+00  0.39999999673E+01  0.40000000000E+01  0.51109989000E-03 0.  1.
     -623   -1    0    0    0    0  0.00000000000E+00  0.00000000000E+00  0.12525980253E-10  0.17130000000E+03  0.17130000000E+03 0.  1.
       11    1    1    2    0    0  0.19099677329E-02 -0.16637890344E-03  0.78191740334E-01  0.78216910820E-01  0.51109989000E-03 0.  1.
     -623    1    1    2    0    0  0.48656280583E-03  0.42373196909E-03  0.44238791314E-04  0.17130000000E+03  0.17130000000E+03 0.  1.
      622    1    1    2    0    0 -0.23965305394E-02 -0.25735306628E-03  0.39217639942E+01  0.39217830940E+01  0.12000000000E-01 0.  1.
</event>
<event>
 5   0  0.3564000E+09  0.9118800E+02  0.7818608E-02  0.1180000E+00
       11   -1    0    0    0    0  0.00000000000E+00  0.00000000000E+00  0.39999999673E+01  0.40000000000E+01  0.51109989000E-03 0. -1.
     -623   -1    0    0    0    0  0.00000000000E+00  0.00000000000E+00  0.12525980253E-10  0.17130000000E+03  0.17130000000E+03 0. -1.
       11    1    1    2    0    0 -0.29741018024E-03  0.75172549944E-03  0.17702394982E-02  0.20120921998E-02  0.51109989000E-03 0.  1.
     -623    1    1    2    0    0 -0.12560832314E-03  0.52730678590E-03  0.26005718965E-03  0.17130000000E+03  0.17130000000E+03 0. -1.
      622    1    1    2    0    0  0.42301850343E-03 -0.12790322856E-02  0.39979696725E+01  0.39979879085E+01  0.12000000000E-01 0. -1.
</event>
<event>
 5   0  0.3564000E+09  0.9118800E+02  0.7818608E-02  0.1180000E+00
       11   -1    0    0    0    0  0.00000000000E+00  0.00000000000E+00  0.39999999673E+01  0.40000000000E+01  0.51109989000E-03 0.  1.
     -623   -1    0    0    0    0  0.00000000000E+00  0.00000000000E+00  0.12525980253E-10  0.17130000000E+03  0.17130000000E+03 0. -1.
       11    1    1    2    0    0 -0.50809907942E-02 -0.12853562549E-02  0.42228035127E+00  0.42231318343E+00  0.51109989000E-03 0.  1.
     -623    1    1    2    0    0  0.59000856462E-03  0.57571084866E-03  0.55815413080E-04  0.17130000000E+03  0.17130000000E+03 0. -1.
      622    1    1    2    0    0  0.44909822292E-02  0.70964540589E-03  0.35776638031E+01  0.35776868170E+01  0.12000000000E-01 0.  0.
</event>
<event>
 5   0  0.3564000E+09  0.9118800E+02  0.7818608E-02  0.1180000E+00
       11   -1    0    0    0    0  0.00000000000E+00  0.00000000000E+00  0.39999999673E+01  0.40000000000E+01  0.51109989000E-03 0.  1.
     -623   -1    0    0    0    0  0.00000000000E+00  0.00000000000E+00  0.12525980253E-10  0.17130000000E+03  0.17130000000E+03 0. -1.
       11    1    1    2    0    0  0.13679832472E-02 -0.24027823359E-02  0.44055660844E-01  0.44145296654E-01  0.51109989000E-03 0.  1.
     -623    1    1    2    0    0 -0.27960429391E-03 -0.41912717895E-04  0.10870948092E-03  0.17130000000E+03  0.17130000000E+03 0. -1.
      622    1    1    2    0    0 -0.10883789530E-02  0.24446950538E-02  0.39558356018E+01  0.39558547078E+01  0.12000000000E-01 0.  1.
</event>
<event>
 5   0  0.3564000E+09  0.9118800E+02  0.7818608E-02  0.1180000E+00
       11   -1    0    0    0    0  0.00000000000E+00  0.00000000000E+00  0.39999999673E+01  0.40000000000E+01  0.51109989000E-03 0. -1.
     -623   -1    0    0    0    0  0.00000000000E+00  0.00000000000E+00  0.12525980253E-10  0.17130000000E+03  0.17130000000E+03 0.  1.
       11    1    1    2    0    0 -0.49562072570E-03  0.56371077911E-03  0.18795343555E-01  0.18817267888E-01  0.51109989000E-03 0. -1.
     -623    1    1    2    0    0  0.94372502269E-03 -0.51658627309E-03  0.40005692278E-04  0.17130000000E+03  0.17130000000E+03 0.  1.
      622    1    1    2    0    0 -0.44810429699E-03 -0.47124506026E-04  0.39811646181E+01  0.39811827287E+01  0.12000000000E-01 0. -1.
</event>
<event>
 5   0  0.3564000E+09  0.9118800E+02  0.7818608E-02  0.1180000E+00
       11   -1    0    0    0    0  0.00000000000E+00  0.00000000000E+00  0.39999999673E+01  0.40000000000E+01  0.51109989000E-03 0. -1.
     -623   -1    0    0    0    0  0.00000000000E+00  0.00000000000E+00  0.12525980253E-10  0.17130000000E+03  0.17130000000E+03 0. -1.
       11    1    1    2    0    0 -0.78089075009E-02 -0.68303265271E-02  0.92829250340E+00  0.92835061560E+00  0.51109989000E-03 0. -1.
     -623    1    1    2    0    0  0.39611015604E-03  0.52192512065E-04  0.97943696249E-04  0.17130000000E+03  0.17130000000E+03 0. -1.
      622    1    1    2    0    0  0.74127973444E-02  0.67781340150E-02  0.30716095246E+01  0.30716493883E+01  0.12000000000E-01 0.  0.
</event>
<event>
 5   0  0.3564000E+09  0.9118800E+02  0.7818608E-02  0.1180000E+00
       11   -1    0    0    0    0  0.00000000000E+00  0.00000000000E+00  0.39999999673E+01  0.40000000000E+01  0.51109989000E-03 0.  1.
     -623   -1    0    0    0    0  0.00000000000E+00  0.00000000000E+00  0.12525980253E-10  0.17130000000E+03  0.17130000000E+03 0. -1.
       11    1    1    2    0    0  0.21903622070E-02  0.24077289466E-03  0.29588781330E+00  0.29589645983E+00  0.51109989000E-03 0.  1.
     -623    1    1    2    0    0 -0.44338133276E-04 -0.10100916334E-03  0.28676186247E-04  0.17130000000E+03  0.17130000000E+03 0. -1.
      622    1    1    2    0    0 -0.21460240736E-02 -0.13976373109E-03  0.37040834865E+01  0.37041035488E+01  0.12000000000E-01 0.  1.
</event>
<event>
 5   0  0.3564000E+09  0.9118800E+02  0.7818608E-02  0.1180000E+00
       11   -1    0    0    0    0  0.00000000000E+00  0.00000000000E+00  0.39999999673E+01  0.40000000000E+01  0.51109989000E-03 0. -1.
     -623   -1    0    0    0    0  0.00000000000E+00  0.00000000000E+00  0.12525980253E-10  0.17130000000E+03  0.17130000000E+03 0. -1.
       11    1    1    2    0    0 -0.12951896169E-02  0.39083091136E-02  0.47515653519E+00  0.47517464847E+00  0.51109989000E-03 0. -1.
     -623    1    1    2    0    0  0.11614705196E-02  0.30991660243E-02  0.45507361509E-04  0.17130000003E+03  0.17130000000E+03 0. -1.
      622    1    1    2    0    0  0.13371909738E-03 -0.70074751379E-02  0.35247979248E+01  0.35248253196E+01  0.12000000000E-01 0. -1.
</event>
<event>
 5   0  0.3564000E+09  0.9118800E+02  0.7818608E-02  0.1180000E+00
       11   -1    0    0    0    0  0.00000000000E+00  0.00000000000E+00  0.39999999673E+01  0.40000000000E+01  0.51109989000E-03 0.  1.
     -623   -1    0    0    0    0  0.00000000000E+00  0.00000000000E+00  0.12525980253E-10  0.17130000000E+03  0.17130000000E+03 0. -1.
       11    1    1    2    0    0 -0.11002159668E-02 -0.50080367070E-03  0.46907462688E-02  0.48708934648E-02  0.51109989000E-03 0.  1.
     -623    1    1    2    0    0 -0.48106993405E-04  0.14674773460E-02  0.19842493244E-03  0.17130000001E+03  0.17130000000E+03 0. -1.
      622    1    1    2    0    0  0.11483229602E-02 -0.96667367483E-03  0.39951107950E+01  0.39951290990E+01  0.12000000000E-01 0.  1.
</event>
<event>
 5   0  0.3564000E+09  0.9118800E+02  0.7818608E-02  0.1180000E+00
       11   -1    0    0    0    0  0.00000000000E+00  0.00000000000E+00  0.39999999673E+01  0.40000000000E+01  0.51109989000E-03 0. -1.
     -623   -1    0    0    0    0  0.00000000000E+00  0.00000000000E+00  0.12525980253E-10  0.17130000000E+03  0.17130000000E+03 0.  1.
       11    1    1    2    0    0  0.39886673950E-03  0.74253413177E-03  0.78324121614E+00  0.78324183643E+00  0.51109989000E-03 0. -1.
     -623    1    1    2    0    0  0.33786077565E-03  0.49716323557E-03  0.23294815785E-04  0.17130000000E+03  0.17130000000E+03 0.  1.
      622    1    1    2    0    0 -0.73672751515E-03 -0.12396973673E-02  0.32167354564E+01  0.32167581625E+01  0.12000000000E-01 0. -1.
</event>
<event>
 5   0  0.3564000E+09  0.9118800E+02  0.7818608E-02  0.1180000E+00
       11   -1    0    0    0    0  0.00000000000E+00  0.00000000000E+00  0.39999999673E+01  0.40000000000E+01  0.51109989000E-03 0.  1.
     -623   -1    0    0    0    0  0.00000000000E+00  0.00000000000E+00  0.12525980253E-10  0.17130000000E+03  0.17130000000E+03 0. -1.
       11    1    1    2    0    0 -0.13898393213E-02  0.34624772403E-03  0.64385655503E-01  0.64403613219E-01  0.51109989000E-03 0.  1.
     -623    1    1    2    0    0 -0.15019708543E-03 -0.25130427325E-03  0.36522393819E-04  0.17130000000E+03  0.17130000000E+03 0. -1.
      622    1    1    2    0    0  0.15400364067E-02 -0.94943450775E-04  0.39355777895E+01  0.39355963865E+01  0.12000000000E-01 0.  1.
</event>
<event>
 5   0  0.3564000E+09  0.9118800E+02  0.7818608E-02  0.1180000E+00
       11   -1    0    0    0    0  0.00000000000E+00  0.00000000000E+00  0.39999999673E+01  0.40000000000E+01  0.51109989000E-03 0.  1.
     -623   -1    0    0    0    0  0.00000000000E+00  0.00000000000E+00  0.12525980253E-10  0.17130000000E+03  0.17130000000E+03 0. -1.
       11    1    1    2    0    0  0.17435670590E-02  0.58673695609E-03  0.31335356776E-01  0.31393472152E-01  0.51109989000E-03 0.  1.
     -623    1    1    2    0    0  0.20136565228E-03  0.54457350338E-03  0.76864003262E-04  0.17130000000E+03  0.17130000000E+03 0. -1.
      622    1    1    2    0    0 -0.19449327116E-02 -0.11313104602E-02  0.39685877518E+01  0.39686065321E+01  0.12000000000E-01 0.  1.
</event>
<event>
 5   0  0.3564000E+09  0.9118800E+02  0.7818608E-02  0.1180000E+00
       11   -1    0    0    0    0  0.00000000000E+00  0.00000000000E+00  0.39999999673E+01  0.40000000000E+01  0.51109989000E-03 0.  1.
     -623   -1    0    0    0    0  0.00000000000E+00  0.00000000000E+00  0.12525980253E-10  0.17130000000E+03  0.17130000000E+03 0.  1.
       11    1    1    2    0    0 -0.14242735736E-03 -0.47208671360E-03  0.48290808114E-01  0.48296030093E-01  0.51109989000E-03 0.  1.
     -623    1    1    2    0    0 -0.23403562038E-04 -0.91944712285E-04  0.23453129812E-04  0.17130000000E+03  0.17130000000E+03 0.  1.
      622    1    1    2    0    0  0.16583091948E-03  0.56403142618E-03  0.39516857190E+01  0.39517039828E+01  0.12000000000E-01 0.  1.
</event>
<event>
 5   0  0.3564000E+09  0.9118800E+02  0.7818608E-02  0.1180000E+00
       11   -1    0    0    0    0  0.00000000000E+00  0.00000000000E+00  0.39999999673E+01  0.40000000000E+01  0.51109989000E-03 0. -1.
     -623   -1    0    0    0    0  0.00000000000E+00  0.00000000000E+00  0.12525980253E-10  0.17130000000E+03  0.17130000000E+03 0. -1.
       11    1    1    2    0    0  0.15179066123E-02  0.40817820366E-03  0.22919368570E+00  0.22919964536E+00  0.51109989000E-03 0. -1.
     -623    1    1    2    0    0  0.15516814202E-03 -0.14028954585E-04  0.25413004707E-04  0.17130000000E+03  0.17130000000E+03 0. -1.
      622    1    1    2    0    0 -0.16730747544E-02 -0.39414924908E-03  0.37707808687E+01  0.37708003546E+01  0.12000000000E-01 0. -1.
</event>
<event>
 5   0  0.3564000E+09  0.9118800E+02  0.7818608E-02  0.1180000E+00
       11   -1    0    0    0    0  0.00000000000E+00  0.00000000000E+00  0.39999999673E+01  0.40000000000E+01  0.51109989000E-03 0.  1.
     -623   -1    0    0    0    0  0.00000000000E+00  0.00000000000E+00  0.12525980253E-10  0.17130000000E+03  0.17130000000E+03 0. -1.
       11    1    1    2    0    0 -0.64581060572E-02 -0.20032769675E-02  0.28067275634E+00  0.28075465735E+00  0.51109989000E-03 0. -1.
     -623    1    1    2    0    0 -0.17126151041E-02 -0.65497182433E-02  0.12017067066E-03  0.17130000013E+03  0.17130000000E+03 0. -1.
      622    1    1    2    0    0  0.81707211613E-02  0.85529952108E-02  0.37192070403E+01  0.37192452088E+01  0.12000000000E-01 0.  1.
</event>
<event>
 5   0  0.3564000E+09  0.9118800E+02  0.7818608E-02  0.1180000E+00
       11   -1    0    0    0    0  0.00000000000E+00  0.00000000000E+00  0.39999999673E+01  0.40000000000E+01  0.51109989000E-03 0.  1.
     -623   -1    0    0    0    0  0.00000000000E+00  0.00000000000E+00  0.12525980253E-10  0.17130000000E+03  0.17130000000E+03 0.  1.
       11    1    1    2    0    0 -0.21567681085E-01  0.45551961003E-02  0.29429984517E+00  0.29512467665E+00  0.51109989000E-03 0.  1.
     -623    1    1    2    0    0 -0.11906719361E-02  0.12602245155E-02  0.91870940236E-03  0.17130000001E+03  0.17130000000E+03 0.  1.
      622    1    1    2    0    0  0.22758353021E-01 -0.58154206156E-02  0.37047814125E+01  0.37048753118E+01  0.12000000000E-01 0.  1.
</event>
<event>
 5   0  0.3564000E+09  0.9118800E+02  0.7818608E-02  0.1180000E+00
       11   -1    0    0    0    0  0.00000000000E+00  0.00000000000E+00  0.39999999673E+01  0.40000000000E+01  0.51109989000E-03 0. -1.
     -623   -1    0    0    0    0  0.00000000000E+00  0.00000000000E+00  0.12525980253E-10  0.17130000000E+03  0.17130000000E+03 0.  1.
       11    1    1    2    0    0  0.13809569519E-02  0.10564421451E-03  0.69048767881E+00  0.69048925699E+00  0.51109989000E-03 0. -1.
     -623    1    1    2    0    0 -0.75290190524E-04 -0.34004260906E-03  0.23567303388E-04  0.17130000000E+03  0.17130000000E+03 0.  1.
      622    1    1    2    0    0 -0.13056667614E-02  0.23439839455E-03  0.33094887212E+01  0.33095107427E+01  0.12000000000E-01 0. -1.
</event>
<event>
 5   0  0.3564000E+09  0.9118800E+02  0.7818608E-02  0.1180000E+00
       11   -1    0    0    0    0  0.00000000000E+00  0.00000000000E+00  0.39999999673E+01  0.40000000000E+01  0.51109989000E-03 0.  1.
     -623   -1    0    0    0    0  0.00000000000E+00  0.00000000000E+00  0.12525980253E-10  0.17130000000E+03  0.17130000000E+03 0.  1.
       11    1    1    2    0    0 -0.80646477448E-02  0.44612789222E-02  0.15252851499E+00  0.15280756088E+00  0.51109989000E-03 0.  1.
     -623    1    1    2    0    0  0.95517626033E-03 -0.51242306099E-02  0.30443399505E-03  0.17130000008E+03  0.17130000000E+03 0.  1.
      622    1    1    2    0    0  0.71094714840E-02  0.66295168982E-03  0.38471670201E+01  0.38471923613E+01  0.12000000000E-01 0.  1.
</event>
<event>
 5   0  0.3564000E+09  0.9118800E+02  0.7818608E-02  0.1180000E+00
       11   -1    0    0    0    0  0.00000000000E+00  0.00000000000E+00  0.39999999673E+01  0.40000000000E+01  0.51109989000E-03 0.  1.
     -623   -1    0    0    0    0  0.00000000000E+00  0.00000000000E+00  0.12525980253E-10  0.17130000000E+03  0.17130000000E+03 0.  1.
       11    1    1    2    0    0 -0.56371183678E-02 -0.32195562068E-02  0.25073773949E+00  0.25082228344E+00  0.51109989000E-03 0.  1.
     -623    1    1    2    0    0  0.10779763135E-02 -0.79931512067E-03  0.10864692338E-03  0.17130000001E+03  0.17130000000E+03 0.  1.
      622    1    1    2    0    0  0.45591420537E-02  0.40188713278E-02  0.37491535830E+01  0.37491777133E+01  0.12000000000E-01 0.  1.
</event>
<event>
 5   0  0.3564000E+09  0.9118800E+02  0.7818608E-02  0.1180000E+00
       11   -1    0    0    0    0  0.00000000000E+00  0.00000000000E+00  0.39999999673E+01  0.40000000000E+01  0.51109989000E-03 0.  1.
     -623   -1    0    0    0    0  0.00000000000E+00  0.00000000000E+00  0.12525980253E-10  0.17130000000E+03  0.17130000000E+03 0.  1.
       11    1    1    2    0    0 -0.44900746903E-02 -0.20288046671E-02  0.24034322950E+00  0.24039427200E+00  0.51109989000E-03 0.  1.
     -623    1    1    2    0    0  0.44234231003E-03 -0.41950524934E-03  0.73138123011E-04  0.17130000000E+03  0.17130000000E+03 0.  1.
      622    1    1    2    0    0  0.40477323803E-02  0.24483099164E-02  0.37595835997E+01  0.37596057269E+01  0.12000000000E-01 0.  1.
</event>
<event>
 5   0  0.3564000E+09  0.9118800E+02  0.7818608E-02  0.1180000E+00
       11   -1    0    0    0    0  0.00000000000E+00  0.00000000000E+00  0.39999999673E+01  0.40000000000E+01  0.51109989000E-03 0.  1.
     -623   -1    0    0    0    0  0.00000000000E+00  0.00000000000E+00  0.12525980253E-10  0.17130000000E+03  0.17130000000E+03 0. -1.
       11    1    1    2    0    0 -0.49014829609E-02  0.37672675627E-02  0.46791344104E-01  0.47200719764E-01  0.51109989000E-03 0.  1.
     -623    1    1    2    0    0  0.18666953570E-03 -0.31256284749E-02  0.43045111526E-03  0.17130000003E+03  0.17130000000E+03 0. -1.
      622    1    1    2    0    0  0.47148134252E-02 -0.64163908746E-03  0.39527781725E+01  0.39527992515E+01  0.12000000000E-01 0.  1.
</event>
<event>
 5   0  0.3564000E+09  0.9118800E+02  0.7818608E-02  0.1180000E+00
       11   -1    0    0    0    0  0.00000000000E+00  0.00000000000E+00  0.39999999673E+01  0.40000000000E+01  0.51109989000E-03 0.  1.
     -623   -1    0    0    0    0  0.00000000000E+00  0.00000000000E+00  0.12525980253E-10  0.17130000000E+03  0.17130000000E+03 0. -1.
       11    1    1    2    0    0 -0.29140089074E-02 -0.38395711757E-02  0.10634175649E+01  0.10634286118E+01  0.51109989000E-03 0.  1.
     -623    1    1    2    0    0  0.25252788866E-04  0.77506758727E-04  0.39363437097E-04  0.17130000000E+03  0.17130000000E+03 0. -1.
      622    1    1    2    0    0  0.28887561185E-02  0.37620644169E-02  0.29365430447E+01  0.29365713938E+01  0.12000000000E-01 0.  0.
</event>
<event>
 5   0  0.3564000E+09  0.9118800E+02  0.7818608E-02  0.1180000E+00
       11   -1    0    0    0    0  0.00000000000E+00  0.00000000000E+00  0.39999999673E+01  0.40000000000E+01  0.51109989000E-03 0.  1.
     -623   -1    0    0    0    0  0.00000000000E+00  0.00000000000E+00  0.12525980253E-10  0.17130000000E+03  0.17130000000E+03 0. -1.
       11    1    1    2    0    0 -0.42055357312E-02 -0.60921597046E-02  0.25961092507E+00  0.25971695089E+00  0.51109989000E-03 0.  1.
     -623    1    1    2    0    0 -0.21982737199E-03  0.25636479557E-04  0.13278108515E-03  0.17130000000E+03  0.17130000000E+03 0. -1.
      622    1    1    2    0    0  0.44253631031E-02  0.60665232251E-02  0.37402562612E+01  0.37402830489E+01  0.12000000000E-01 0.  1.
</event>
<event>
 5   0  0.3564000E+09  0.9118800E+02  0.7818608E-02  0.1180000E+00
       11   -1    0    0    0    0  0.00000000000E+00  0.00000000000E+00  0.39999999673E+01  0.40000000000E+01  0.51109989000E-03 0. -1.
     -623   -1    0    0    0    0  0.00000000000E+00  0.00000000000E+00  0.12525980253E-10  0.17130000000E+03  0.17130000000E+03 0. -1.
       11    1    1    2    0    0 -0.72173655610E-03 -0.37375150448E-03  0.80368602505E-01  0.80374337219E-01  0.51109989000E-03 0. -1.
     -623    1    1    2    0    0 -0.15180499544E-03 -0.17534770721E-03  0.24207178971E-04  0.17130000000E+03  0.17130000000E+03 0. -1.
      622    1    1    2    0    0  0.87354155154E-03  0.54909921169E-03  0.39196071577E+01  0.39196256626E+01  0.12000000000E-01 0.  0.
</event>
<event>
 5   0  0.3564000E+09  0.9118800E+02  0.7818608E-02  0.1180000E+00
       11   -1    0    0    0    0  0.00000000000E+00  0.00000000000E+00  0.39999999673E+01  0.40000000000E+01  0.51109989000E-03 0.  1.
     -623   -1    0    0    0    0  0.00000000000E+00  0.00000000000E+00  0.12525980253E-10  0.17130000000E+03  0.17130000000E+03 0. -1.
       11    1    1    2    0    0 -0.79970467000E-03 -0.62066965301E-04  0.46482010557E-01  0.46491740202E-01  0.51109989000E-03 0.  1.
     -623    1    1    2    0    0 -0.18212001450E-04  0.40775843246E-04  0.27993393527E-04  0.17130000000E+03  0.17130000000E+03 0. -1.
      622    1    1    2    0    0  0.81791667145E-03  0.21291122056E-04  0.39534899634E+01  0.39535082598E+01  0.12000000000E-01 0.  1.
</event>
<event>
 5   0  0.3564000E+09  0.9118800E+02  0.7818608E-02  0.1180000E+00
       11   -1    0    0    0    0  0.00000000000E+00  0.00000000000E+00  0.39999999673E+01  0.40000000000E+01  0.51109989000E-03 0.  1.
     -623   -1    0    0    0    0  0.00000000000E+00  0.00000000000E+00  0.12525980253E-10  0.17130000000E+03  0.17130000000E+03 0.  1.
       11    1    1    2    0    0  0.26061903856E-02 -0.37224195056E-02  0.21323551401E+00  0.21328453833E+00  0.51109989000E-03 0.  1.
     -623    1    1    2    0    0 -0.27261843811E-03 -0.66297462318E-03  0.71265498861E-04  0.17130000000E+03  0.17130000000E+03 0.  1.
      622    1    1    2    0    0 -0.23335719475E-02  0.43853941288E-02  0.37866931879E+01  0.37867154602E+01  0.12000000000E-01 0.  1.
</event>
<event>
 5   0  0.3564000E+09  0.9118800E+02  0.7818608E-02  0.1180000E+00
       11   -1    0    0    0    0  0.00000000000E+00  0.00000000000E+00  0.39999999673E+01  0.40000000000E+01  0.51109989000E-03 0.  1.
     -623   -1    0    0    0    0  0.00000000000E+00  0.00000000000E+00  0.12525980253E-10  0.17130000000E+03  0.17130000000E+03 0. -1.
       11    1    1    2    0    0 -0.60889800323E-03 -0.43336254302E-03  0.64148644146E-01  0.64155033541E-01  0.51109989000E-03 0.  1.
     -623    1    1    2    0    0 -0.63459543891E-04  0.83598956889E-04  0.24723206058E-04  0.17130000000E+03  0.17130000000E+03 0. -1.
      622    1    1    2    0    0  0.67235754724E-03  0.34976358597E-03  0.39358266075E+01  0.39358449739E+01  0.12000000000E-01 0.  1.
</event>
<event>
 5   0  0.3564000E+09  0.9118800E+02  0.7818608E-02  0.1180000E+00
       11   -1    0    0    0    0  0.00000000000E+00  0.00000000000E+00  0.39999999673E+01  0.40000000000E+01  0.51109989000E-03 0. -1.
     -623   -1    0    0    0    0  0.00000000000E+00  0.00000000000E+00  0.12525980253E-10  0.17130000000E+03  0.17130000000E+03 0.  1.
       11    1    1    2    0    0 -0.88648666401E-03 -0.30432590125E-02  0.38441334834E+00  0.38442675621E+00  0.51109989000E-03 0. -1.
     -623    1    1    2    0    0 -0.24097646136E-03  0.22499212153E-02  0.33566917474E-04  0.17130000001E+03  0.17130000000E+03 0.  1.
      622    1    1    2    0    0  0.11274631251E-02  0.79333780021E-03  0.36155530467E+01  0.36155732234E+01  0.12000000000E-01 0. -1.
</event>
<event>
 5   0  0.3564000E+09  0.9118800E+02  0.7818608E-02  0.1180000E+00
       11   -1    0    0    0    0  0.00000000000E+00  0.00000000000E+00  0.39999999673E+01  0.40000000000E+01  0.51109989000E-03 0. -1.
     -623   -1    0    0    0    0  0.00000000000E+00  0.00000000000E+00  0.12525980253E-10  0.17130000000E+03  0.17130000000E+03 0. -1.
       11    1    1    2    0    0 -0.15598499233E-01  0.91277144949E-02  0.11979640990E+01  0.11981005266E+01  0.51109989000E-03 0. -1.
     -623    1    1    2    0    0  0.12343378784E-01 -0.67039355376E-02  0.16560720371E-03  0.17130000058E+03  0.17130000000E+03 0. -1.
      622    1    1    2    0    0  0.32551204489E-02 -0.24237789573E-02  0.28018702612E+01  0.28018988974E+01  0.12000000000E-01 0.  0.
</event>
<event>
 5   0  0.3564000E+09  0.9118800E+02  0.7818608E-02  0.1180000E+00
       11   -1    0    0    0    0  0.00000000000E+00  0.00000000000E+00  0.39999999673E+01  0.40000000000E+01  0.51109989000E-03 0. -1.
     -623   -1    0    0    0    0  0.00000000000E+00  0.00000000000E+00  0.12525980253E-10  0.17130000000E+03  0.17130000000E+03 0. -1.
       11    1    1    2    0    0  0.26593794358E-04 -0.38195439258E-02  0.45097338918E+00  0.45098985420E+00  0.51109989000E-03 0. -1.
     -623    1    1    2    0    0  0.50088752172E-02  0.51565754000E-02  0.40694768623E-04  0.17130000015E+03  0.17130000000E+03 0. -1.
      622    1    1    2    0    0 -0.50354690115E-02 -0.13370314742E-02  0.35489858834E+01  0.35490099949E+01  0.12000000000E-01 0. -1.
</event>
<event>
 5   0  0.3564000E+09  0.9118800E+02  0.7818608E-02  0.1180000E+00
       11   -1    0    0    0    0  0.00000000000E+00  0.00000000000E+00  0.39999999673E+01  0.40000000000E+01  0.51109989000E-03 0.  1.
     -623   -1    0    0    0    0  0.00000000000E+00  0.00000000000E+00  0.12525980253E-10  0.17130000000E+03  0.17130000000E+03 0.  1.
       11    1    1    2    0    0  0.43335945466E-03 -0.94121651092E-03  0.14583487240E+00  0.14583944912E+00  0.51109989000E-03 0.  1.
     -623    1    1    2    0    0 -0.18158801550E-04 -0.89519861546E-05  0.23364727555E-04  0.17130000000E+03  0.17130000000E+03 0.  1.
      622    1    1    2    0    0 -0.41520065307E-03  0.95016849710E-03  0.38541417396E+01  0.38541605602E+01  0.12000000000E-01 0.  1.
</event>
<event>
 5   0  0.3564000E+09  0.9118800E+02  0.7818608E-02  0.1180000E+00
       11   -1    0    0    0    0  0.00000000000E+00  0.00000000000E+00  0.39999999673E+01  0.40000000000E+01  0.51109989000E-03 0. -1.
     -623   -1    0    0    0    0  0.00000000000E+00  0.00000000000E+00  0.12525980253E-10  0.17130000000E+03  0.17130000000E+03 0.  1.
       11    1    1    2    0    0  0.12212014351E-01 -0.16258093420E-01  0.44639443106E+00  0.44685759275E+00  0.51109989000E-03 0. -1.
     -623    1    1    2    0    0 -0.20763827239E-01  0.99122514621E-02  0.50089710677E-03  0.17130000155E+03  0.17130000000E+03 0.  1.
      622    1    1    2    0    0  0.85518128884E-02  0.63458419581E-02  0.35531046393E+01  0.35531408614E+01  0.12000000000E-01 0. -1.
</event>
<event>
 5   0  0.3564000E+09  0.9118800E+02  0.7818608E-02  0.1180000E+00
       11   -1    0    0    0    0  0.00000000000E+00  0.00000000000E+00  0.39999999673E+01  0.40000000000E+01  0.51109989000E-03 0.  1.
     -623   -1    0    0    0    0  0.00000000000E+00  0.00000000000E+00  0.12525980253E-10  0.17130000000E+03  0.17130000000E+03 0. -1.
       11    1    1    2    0    0  0.10831964439E-01 -0.55223166293E-02  0.61620528755E-01  0.62810653727E-01  0.51109989000E-03 0.  1.
     -623    1    1    2    0    0 -0.55993188150E-02  0.21512528106E-02  0.12134092215E-02  0.17130000011E+03  0.17130000000E+03 0. -1.
      622    1    1    2    0    0 -0.52326456241E-02  0.33710638187E-02  0.39371660294E+01  0.39371892369E+01  0.12000000000E-01 0.  1.
</event>
<event>
 5   0  0.3564000E+09  0.9118800E+02  0.7818608E-02  0.1180000E+00
       11   -1    0    0    0    0  0.00000000000E+00  0.00000000000E+00  0.39999999673E+01  0.40000000000E+01  0.51109989000E-03 0.  1.
     -623   -1    0    0    0    0  0.00000000000E+00  0.00000000000E+00  0.12525980253E-10  0.17130000000E+03  0.17130000000E+03 0.  1.
       11    1    1    2    0    0  0.56817668064E-03  0.19251528902E-02  0.41747825945E+00  0.41748339772E+00  0.51109989000E-03 0.  1.
     -623    1    1    2    0    0 -0.33765171254E-04  0.50745343935E-04  0.25788061545E-04  0.17130000000E+03  0.17130000000E+03 0.  1.
      622    1    1    2    0    0 -0.53441150939E-03 -0.19758982342E-02  0.35824959198E+01  0.35825166023E+01  0.12000000000E-01 0.  1.
</event>
<event>
 5   0  0.3564000E+09  0.9118800E+02  0.7818608E-02  0.1180000E+00
       11   -1    0    0    0    0  0.00000000000E+00  0.00000000000E+00  0.39999999673E+01  0.40000000000E+01  0.51109989000E-03 0.  1.
     -623   -1    0    0    0    0  0.00000000000E+00  0.00000000000E+00  0.12525980253E-10  0.17130000000E+03  0.17130000000E+03 0.  1.
       11    1    1    2    0    0  0.19640795568E-02 -0.75495370212E-03  0.55217689128E-01  0.55260130106E-01  0.51109989000E-03 0.  1.
     -623    1    1    2    0    0 -0.11364721277E-02 -0.44157493664E-03  0.60933168462E-04  0.17130000000E+03  0.17130000000E+03 0.  1.
      622    1    1    2    0    0 -0.82760742766E-03  0.11965286393E-02  0.39447213502E+01  0.39447398706E+01  0.12000000000E-01 0.  1.
</event>
<event>
 5   0  0.3564000E+09  0.9118800E+02  0.7818608E-02  0.1180000E+00
       11   -1    0    0    0    0  0.00000000000E+00  0.00000000000E+00  0.39999999673E+01  0.40000000000E+01  0.51109989000E-03 0. -1.
     -623   -1    0    0    0    0  0.00000000000E+00  0.00000000000E+00  0.12525980253E-10  0.17130000000E+03  0.17130000000E+03 0. -1.
       11    1    1    2    0    0  0.57900185487E-02 -0.27322544487E-02  0.67798347572E+00  0.67801389669E+00  0.51109989000E-03 0. -1.
     -623    1    1    2    0    0 -0.41140869772E-03 -0.23636561224E-03  0.57743547650E-04  0.17130000000E+03  0.17130000000E+03 0. -1.
      622    1    1    2    0    0 -0.53786098510E-02  0.29686200610E-02  0.33219587481E+01  0.33219861026E+01  0.12000000000E-01 0. -1.
</event>
<event>
 5   0  0.3564000E+09  0.9118800E+02  0.7818608E-02  0.1180000E+00
       11   -1    0    0    0    0  0.00000000000E+00  0.00000000000E+00  0.39999999673E+01  0.40000000000E+01  0.51109989000E-03 0.  1.
     -623   -1    0    0    0    0  0.00000000000E+00  0.00000000000E+00  0.12525980253E-10  0.17130000000E+03  0.17130000000E+03 0. -1.
       11    1    1    2    0    0  0.99122224323E-03 -0.81928942057E-03  0.45325368928E-01  0.45346488808E-01  0.51109989000E-03 0.  1.
     -623    1    1    2    0    0 -0.49163812351E-04 -0.13139825837E-03  0.39520221863E-04  0.17130000000E+03  0.17130000000E+03 0. -1.
      622    1    1    2    0    0 -0.94205843088E-03  0.95068767894E-03  0.39546350782E+01  0.39546535111E+01  0.12000000000E-01 0.  1.
</event>
<event>
 5   0  0.3564000E+09  0.9118800E+02  0.7818608E-02  0.1180000E+00
       11   -1    0    0    0    0  0.00000000000E+00  0.00000000000E+00  0.39999999673E+01  0.40000000000E+01  0.51109989000E-03 0.  1.
     -623   -1    0    0    0    0  0.00000000000E+00  0.00000000000E+00  0.12525980253E-10  0.17130000000E+03  0.17130000000E+03 0.  1.
       11    1    1    2    0    0  0.14340366760E-02  0.20249944757E-02  0.42412042472E-01  0.42487640924E-01  0.51109989000E-03 0.  1.
     -623    1    1    2    0    0  0.18896325751E-03 -0.26753386743E-02  0.94166361096E-04  0.17130000002E+03  0.17130000000E+03 0.  1.
      622    1    1    2    0    0 -0.16229999335E-02  0.65034419860E-03  0.39574937585E+01  0.39575123381E+01  0.12000000000E-01 0.  1.
</event>
<event>
 5   0  0.3564000E+09  0.9118800E+02  0.7818608E-02  0.1180000E+00
       11   -1    0    0    0    0  0.00000000000E+00  0.00000000000E+00  0.39999999673E+01  0.40000000000E+01  0.51109989000E-03 0. -1.
     -623   -1    0    0    0    0  0.00000000000E+00  0.00000000000E+00  0.12525980253E-10  0.17130000000E+03  0.17130000000E+03 0. -1.
       11    1    1    2    0    0  0.43562255731E-03 -0.96522142136E-03  0.38173986515E+00  0.38174167612E+00  0.51109989000E-03 0. -1.
     -623    1    1    2    0    0 -0.12372839810E-03 -0.14465538147E-03  0.21861236248E-04  0.17130000000E+03  0.17130000000E+03 0. -1.
      622    1    1    2    0    0 -0.31189415913E-03  0.11098768029E-02  0.36182382435E+01  0.36182583263E+01  0.12000000000E-01 0. -1.
</event>
<event>
 5   0  0.3564000E+09  0.9118800E+02  0.7818608E-02  0.1180000E+00
       11   -1    0    0    0    0  0.00000000000E+00  0.00000000000E+00  0.39999999673E+01  0.40000000000E+01  0.51109989000E-03 0.  1.
     -623   -1    0    0    0    0  0.00000000000E+00  0.00000000000E+00  0.12525980253E-10  0.17130000000E+03  0.17130000000E+03 0. -1.
       11    1    1    2    0    0 -0.73354649802E-02 -0.37612525322E-02  0.46893112125E+00  0.46900385261E+00  0.51109989000E-03 0.  1.
     -623    1    1    2    0    0  0.10622201420E-03  0.18341774759E-03  0.10230295665E-03  0.17130000000E+03  0.17130000000E+03 0. -1.
      622    1    1    2    0    0  0.72292429660E-02  0.35778347847E-02  0.35309665432E+01  0.35309961472E+01  0.12000000000E-01 0.  1.
</event>
<event>
 5   0  0.3564000E+09  0.9118800E+02  0.7818608E-02  0.1180000E+00
       11   -1    0    0    0    0  0.00000000000E+00  0.00000000000E+00  0.39999999673E+01  0.40000000000E+01  0.51109989000E-03 0. -1.
     -623   -1    0    0    0    0  0.00000000000E+00  0.00000000000E+00  0.12525980253E-10  0.17130000000E+03  0.17130000000E+03 0. -1.
       11    1    1    2    0    0 -0.55362959875E-03 -0.55294819775E-03  0.97177064064E-02  0.97625456896E-02  0.51109989000E-03 0.  1.
     -623    1    1    2    0    0  0.41273588379E-04  0.78912651344E-04  0.62911808986E-04  0.17130000000E+03  0.17130000000E+03 0. -1.
      622    1    1    2    0    0  0.51235601034E-03  0.47403554635E-03  0.39902193523E+01  0.39902374575E+01  0.12000000000E-01 0. -1.
</event>
<event>
 5   0  0.3564000E+09  0.9118800E+02  0.7818608E-02  0.1180000E+00
       11   -1    0    0    0    0  0.00000000000E+00  0.00000000000E+00  0.39999999673E+01  0.40000000000E+01  0.51109989000E-03 0.  1.
     -623   -1    0    0    0    0  0.00000000000E+00  0.00000000000E+00  0.12525980253E-10  0.17130000000E+03  0.17130000000E+03 0. -1.
       11    1    1    2    0    0  0.63079625986E-04  0.19760501789E-03  0.61357482239E-01  0.61359961493E-01  0.51109989000E-03 0.  1.
     -623    1    1    2    0    0  0.10939038839E-03 -0.18922318156E-04  0.20734944283E-04  0.17130000000E+03  0.17130000000E+03 0. -1.
      622    1    1    2    0    0 -0.17247001438E-03 -0.17868269973E-03  0.39386217502E+01  0.39386400385E+01  0.12000000000E-01 0.  1.
</event>
<event>
 5   0  0.3564000E+09  0.9118800E+02  0.7818608E-02  0.1180000E+00
       11   -1    0    0    0    0  0.00000000000E+00  0.00000000000E+00  0.39999999673E+01  0.40000000000E+01  0.51109989000E-03 0.  1.
     -623   -1    0    0    0    0  0.00000000000E+00  0.00000000000E+00  0.12525980253E-10  0.17130000000E+03  0.17130000000E+03 0. -1.
       11    1    1    2    0    0  0.49386263721E-03 -0.13108153692E-02  0.53989145970E-01  0.54009732854E-01  0.51109989000E-03 0.  1.
     -623    1    1    2    0    0  0.12180766498E-03  0.19242244735E-03  0.39007332677E-04  0.17130000000E+03  0.17130000000E+03 0. -1.
      622    1    1    2    0    0 -0.61567030253E-03  0.11183929213E-02  0.39459718253E+01  0.39459902783E+01  0.12000000000E-01 0.  1.
</event>
<event>
 5   0  0.3564000E+09  0.9118800E+02  0.7818608E-02  0.1180000E+00
       11   -1    0    0    0    0  0.00000000000E+00  0.00000000000E+00  0.39999999673E+01  0.40000000000E+01  0.51109989000E-03 0. -1.
     -623   -1    0    0    0    0  0.00000000000E+00  0.00000000000E+00  0.12525980253E-10  0.17130000000E+03  0.17130000000E+03 0.  1.
       11    1    1    2    0    0  0.18002403759E-03  0.67975823474E-03  0.23734720521E-01  0.23750634965E-01  0.51109989000E-03 0.  1.
     -623    1    1    2    0    0  0.34795359115E-04  0.35096607555E-04  0.34059433317E-04  0.17130000000E+03  0.17130000000E+03 0.  1.
      622    1    1    2    0    0 -0.21481939673E-03 -0.71485484232E-03  0.39762311900E+01  0.39762493677E+01  0.12000000000E-01 0. -1.
</event>
<event>
 5   0  0.3564000E+09  0.9118800E+02  0.7818608E-02  0.1180000E+00
       11   -1    0    0    0    0  0.00000000000E+00  0.00000000000E+00  0.39999999673E+01  0.40000000000E+01  0.51109989000E-03 0. -1.
     -623   -1    0    0    0    0  0.00000000000E+00  0.00000000000E+00  0.12525980253E-10  0.17130000000E+03  0.17130000000E+03 0. -1.
       11    1    1    2    0    0 -0.29036252648E-04 -0.18086603355E-02  0.12633099058E+00  0.12634497417E+00  0.51109989000E-03 0. -1.
     -623    1    1    2    0    0  0.96085449654E-04  0.73467026630E-04  0.32927356246E-04  0.17130000000E+03  0.17130000000E+03 0. -1.
      622    1    1    2    0    0 -0.67049197006E-04  0.17351933088E-02  0.38736360494E+01  0.38736550258E+01  0.12000000000E-01 0. -1.
</event>
<event>
 5   0  0.3564000E+09  0.9118800E+02  0.7818608E-02  0.1180000E+00
       11   -1    0    0    0    0  0.00000000000E+00  0.00000000000E+00  0.39999999673E+01  0.40000000000E+01  0.51109989000E-03 0.  1.
     -623   -1    0    0    0    0  0.00000000000E+00  0.00000000000E+00  0.12525980253E-10  0.17130000000E+03  0.17130000000E+03 0.  1.
       11    1    1    2    0    0  0.15090030878E-02 -0.17779860735E-02  0.27302559088E+00  0.27303602843E+00  0.51109989000E-03 0.  1.
     -623    1    1    2    0    0  0.67558305705E-03  0.50744491210E-05  0.30786919535E-04  0.17130000000E+03  0.17130000000E+03 0.  1.
      622    1    1    2    0    0 -0.21845861467E-02  0.17729116244E-02  0.37269436003E+01  0.37269639809E+01  0.12000000000E-01 0.  1.
</event>
<event>
 5   0  0.3564000E+09  0.9118800E+02  0.7818608E-02  0.1180000E+00
       11   -1    0    0    0    0  0.00000000000E+00  0.00000000000E+00  0.39999999673E+01  0.40000000000E+01  0.51109989000E-03 0.  1.
     -623   -1    0    0    0    0  0.00000000000E+00  0.00000000000E+00  0.12525980253E-10  0.17130000000E+03  0.17130000000E+03 0.  1.
       11    1    1    2    0    0  0.19059807462E-02  0.16931089494E-04  0.21345421388E+00  0.21346333572E+00  0.51109989000E-03 0.  1.
     -623    1    1    2    0    0 -0.25022159137E-02  0.59023461239E-03  0.28218898055E-04  0.17130000002E+03  0.17130000000E+03 0.  1.
      622    1    1    2    0    0  0.59623517997E-03 -0.60716570483E-03  0.37865175546E+01  0.37865366650E+01  0.12000000000E-01 0.  1.
</event>
<event>
 5   0  0.3564000E+09  0.9118800E+02  0.7818608E-02  0.1180000E+00
       11   -1    0    0    0    0  0.00000000000E+00  0.00000000000E+00  0.39999999673E+01  0.40000000000E+01  0.51109989000E-03 0. -1.
     -623   -1    0    0    0    0  0.00000000000E+00  0.00000000000E+00  0.12525980253E-10  0.17130000000E+03  0.17130000000E+03 0. -1.
       11    1    1    2    0    0  0.32205165308E-02  0.23181621607E-02  0.28998402297E+00  0.29001162114E+00  0.51109989000E-03 0. -1.
     -623    1    1    2    0    0 -0.33894491550E-02  0.63317180124E-02  0.57210779817E-04  0.17130000015E+03  0.17130000000E+03 0. -1.
      622    1    1    2    0    0  0.16893262419E-03 -0.86498801731E-02  0.37099587336E+01  0.37099882283E+01  0.12000000000E-01 0. -1.
</event>
<event>
 5   0  0.3564000E+09  0.9118800E+02  0.7818608E-02  0.1180000E+00
       11   -1    0    0    0    0  0.00000000000E+00  0.00000000000E+00  0.39999999673E+01  0.40000000000E+01  0.51109989000E-03 0.  1.
     -623   -1    0    0    0    0  0.00000000000E+00  0.00000000000E+00  0.12525980253E-10  0.17130000000E+03  0.17130000000E+03 0. -1.
       11    1    1    2    0    0 -0.28321406216E-02 -0.20048155568E-02  0.12259112216E+00  0.12264128490E+00  0.51109989000E-03 0.  1.
     -623    1    1    2    0    0 -0.27792822251E-04 -0.70434928367E-05  0.70276200544E-04  0.17130000000E+03  0.17130000000E+03 0. -1.
      622    1    1    2    0    0  0.28599334438E-02  0.20118590496E-02  0.38773385685E+01  0.38773587146E+01  0.12000000000E-01 0.  1.
</event>
<event>
 5   0  0.3564000E+09  0.9118800E+02  0.7818608E-02  0.1180000E+00
       11   -1    0    0    0    0  0.00000000000E+00  0.00000000000E+00  0.39999999673E+01  0.40000000000E+01  0.51109989000E-03 0.  1.
     -623   -1    0    0    0    0  0.00000000000E+00  0.00000000000E+00  0.12525980253E-10  0.17130000000E+03  0.17130000000E+03 0.  1.
       11    1    1    2    0    0  0.27540275974E-03  0.63578492560E-03  0.15394981009E-01  0.15419037924E-01  0.51109989000E-03 0.  1.
     -623    1    1    2    0    0 -0.15411083864E-04 -0.14278712954E-02  0.42187138291E-04  0.17130000001E+03  0.17130000000E+03 0.  1.
      622    1    1    2    0    0 -0.25999167588E-03  0.79208636983E-03  0.39845627992E+01  0.39845809561E+01  0.12000000000E-01 0.  1.
</event>
<event>
 5   0  0.3564000E+09  0.9118800E+02  0.7818608E-02  0.1180000E+00
       11   -1    0    0    0    0  0.00000000000E+00  0.00000000000E+00  0.39999999673E+01  0.40000000000E+01  0.51109989000E-03 0. -1.
     -623   -1    0    0    0    0  0.00000000000E+00  0.00000000000E+00  0.12525980253E-10  0.17130000000E+03  0.17130000000E+03 0. -1.
       11    1    1    2    0    0  0.73858237546E-03  0.39248643331E-02  0.80516157203E+00  0.80517163907E+00  0.51109989000E-03 0. -1.
     -623    1    1    2    0    0  0.67181116639E-04  0.11683925993E-03  0.35229118032E-04  0.17130000000E+03  0.17130000000E+03 0. -1.
      622    1    1    2    0    0 -0.80576349210E-03 -0.40417035931E-02  0.31948031662E+01  0.31948283609E+01  0.12000000000E-01 0. -1.
</event>
<event>
 5   0  0.3564000E+09  0.9118800E+02  0.7818608E-02  0.1180000E+00
       11   -1    0    0    0    0  0.00000000000E+00  0.00000000000E+00  0.39999999673E+01  0.40000000000E+01  0.51109989000E-03 0. -1.
     -623   -1    0    0    0    0  0.00000000000E+00  0.00000000000E+00  0.12525980253E-10  0.17130000000E+03  0.17130000000E+03 0.  1.
       11    1    1    2    0    0  0.92653102304E-02 -0.16616998322E-02  0.25261017272E-01  0.26962704500E-01  0.51109989000E-03 0. -1.
     -623    1    1    2    0    0 -0.14178346238E-01 -0.12343500258E-02  0.17244699207E-02  0.17130000060E+03  0.17130000000E+03 0.  1.
      622    1    1    2    0    0  0.49130360080E-02  0.28960498580E-02  0.39730144802E+01  0.39730366956E+01  0.12000000000E-01 0. -1.
</event>
<event>
 5   0  0.3564000E+09  0.9118800E+02  0.7818608E-02  0.1180000E+00
       11   -1    0    0    0    0  0.00000000000E+00  0.00000000000E+00  0.39999999673E+01  0.40000000000E+01  0.51109989000E-03 0. -1.
     -623   -1    0    0    0    0  0.00000000000E+00  0.00000000000E+00  0.12525980253E-10  0.17130000000E+03  0.17130000000E+03 0.  1.
       11    1    1    2    0    0  0.12260619465E-02  0.35098774567E-03  0.30404186055E-01  0.30435212716E-01  0.51109989000E-03 0. -1.
     -623    1    1    2    0    0 -0.87624363560E-03  0.15918036109E-02  0.49632553227E-04  0.17130000001E+03  0.17130000000E+03 0.  1.
      622    1    1    2    0    0 -0.34981831005E-03 -0.19427913581E-02  0.39695461527E+01  0.39695647816E+01  0.12000000000E-01 0. -1.
</event>
<event>
 5   0  0.3564000E+09  0.9118800E+02  0.7818608E-02  0.1180000E+00
       11   -1    0    0    0    0  0.00000000000E+00  0.00000000000E+00  0.39999999673E+01  0.40000000000E+01  0.51109989000E-03 0. -1.
     -623   -1    0    0    0    0  0.00000000000E+00  0.00000000000E+00  0.12525980253E-10  0.17130000000E+03  0.17130000000E+03 0. -1.
       11    1    1    2    0    0  0.28360799043E-03 -0.27556965053E-02  0.13358773063E+00  0.13361742886E+00  0.51109989000E-03 0. -1.
     -623    1    1    2    0    0 -0.16159190176E-02  0.53444612049E-02  0.49474910227E-04  0.17130000009E+03  0.17130000000E+03 0. -1.
      622    1    1    2    0    0  0.13323110305E-02 -0.25887647108E-02  0.38663627702E+01  0.38663824885E+01  0.12000000000E-01 0. -1.
</event>
<event>
 5   0  0.3564000E+09  0.9118800E+02  0.7818608E-02  0.1180000E+00
       11   -1    0    0    0    0  0.00000000000E+00  0.00000000000E+00  0.39999999673E+01  0.40000000000E+01  0.51109989000E-03 0. -1.
     -623   -1    0    0    0    0  0.00000000000E+00  0.00000000000E+00  0.12525980253E-10  0.17130000000E+03  0.17130000000E+03 0.  1.
       11    1    1    2    0    0 -0.55032465381E-03  0.76426129283E-03  0.26203901099E-01  0.26225800390E-01  0.51109989000E-03 0. -1.
     -623    1    1    2    0    0 -0.37275322710E-04 -0.18758837621E-03  0.40070886559E-04  0.17130000000E+03  0.17130000000E+03 0.  1.
      622    1    1    2    0    0  0.58759997652E-03 -0.57667291661E-03  0.39737559954E+01  0.39737741995E+01  0.12000000000E-01 0. -1.
</event>
<event>
 5   0  0.3564000E+09  0.9118800E+02  0.7818608E-02  0.1180000E+00
       11   -1    0    0    0    0  0.00000000000E+00  0.00000000000E+00  0.39999999673E+01  0.40000000000E+01  0.51109989000E-03 0. -1.
     -623   -1    0    0    0    0  0.00000000000E+00  0.00000000000E+00  0.12525980253E-10  0.17130000000E+03  0.17130000000E+03 0. -1.
       11    1    1    2    0    0  0.28607179362E-02 -0.71554898614E-02  0.81100160914E+00  0.81103838133E+00  0.51109989000E-03 0. -1.
     -623    1    1    2    0    0 -0.84742669538E-05 -0.17012084583E-02  0.72900489176E-04  0.17130000001E+03  0.17130000000E+03 0. -1.
      622    1    1    2    0    0 -0.28522436692E-02  0.88566983193E-02  0.31889254568E+01  0.31889616093E+01  0.12000000000E-01 0. -1.
</event>
<event>
 5   0  0.3564000E+09  0.9118800E+02  0.7818608E-02  0.1180000E+00
       11   -1    0    0    0    0  0.00000000000E+00  0.00000000000E+00  0.39999999673E+01  0.40000000000E+01  0.51109989000E-03 0.  1.
     -623   -1    0    0    0    0  0.00000000000E+00  0.00000000000E+00  0.12525980253E-10  0.17130000000E+03  0.17130000000E+03 0.  1.
       11    1    1    2    0    0  0.73056194138E-03 -0.32808627445E-04  0.23742909378E-01  0.23759666743E-01  0.51109989000E-03 0.  1.
     -623    1    1    2    0    0 -0.39921568937E-03 -0.45738256753E-03  0.34877424064E-04  0.17130000000E+03  0.17130000000E+03 0.  1.
      622    1    1    2    0    0 -0.33134625201E-03  0.49019119497E-03  0.39762221806E+01  0.39762403322E+01  0.12000000000E-01 0.  1.
</event>
<event>
 5   0  0.3564000E+09  0.9118800E+02  0.7818608E-02  0.1180000E+00
       11   -1    0    0    0    0  0.00000000000E+00  0.00000000000E+00  0.39999999673E+01  0.40000000000E+01  0.51109989000E-03 0.  1.
     -623   -1    0    0    0    0  0.00000000000E+00  0.00000000000E+00  0.12525980253E-10  0.17130000000E+03  0.17130000000E+03 0.  1.
       11    1    1    2    0    0 -0.49077383026E-03  0.14241013485E-02  0.29276301254E-01  0.29319480926E-01  0.51109989000E-03 0.  1.
     -623    1    1    2    0    0 -0.59990319100E-05 -0.10141818621E-03  0.61531404961E-04  0.17130000000E+03  0.17130000000E+03 0.  1.
      622    1    1    2    0    0  0.49677286218E-03 -0.13226831620E-02  0.39706621421E+01  0.39706805264E+01  0.12000000000E-01 0.  1.
</event>
<event>
 5   0  0.3564000E+09  0.9118800E+02  0.7818608E-02  0.1180000E+00
       11   -1    0    0    0    0  0.00000000000E+00  0.00000000000E+00  0.39999999673E+01  0.40000000000E+01  0.51109989000E-03 0.  1.
     -623   -1    0    0    0    0  0.00000000000E+00  0.00000000000E+00  0.12525980253E-10  0.17130000000E+03  0.17130000000E+03 0. -1.
       11    1    1    2    0    0  0.10801455615E-02 -0.10208791221E-03  0.76329752578E-01  0.76339174008E-01  0.51109989000E-03 0.  1.
     -623    1    1    2    0    0 -0.17036006827E-04 -0.29667446353E-04  0.27885284480E-04  0.17130000000E+03  0.17130000000E+03 0. -1.
      622    1    1    2    0    0 -0.10631095548E-02  0.13175535847E-03  0.39236423171E+01  0.39236608136E+01  0.12000000000E-01 0.  1.
</event>
<event>
 5   0  0.3564000E+09  0.9118800E+02  0.7818608E-02  0.1180000E+00
       11   -1    0    0    0    0  0.00000000000E+00  0.00000000000E+00  0.39999999673E+01  0.40000000000E+01  0.51109989000E-03 0. -1.
     -623   -1    0    0    0    0  0.00000000000E+00  0.00000000000E+00  0.12525980253E-10  0.17130000000E+03  0.17130000000E+03 0.  1.
       11    1    1    2    0    0  0.15534010779E-02 -0.14131663328E-02  0.26835111944E+00  0.26835982304E+00  0.51109989000E-03 0. -1.
     -623    1    1    2    0    0 -0.13868121868E-03 -0.10261207536E-03  0.28541588760E-04  0.17130000000E+03  0.17130000000E+03 0.  1.
      622    1    1    2    0    0 -0.14147198594E-02  0.15157784080E-02  0.37316203012E+01  0.37316401718E+01  0.12000000000E-01 0. -1.
</event>
<event>
 5   0  0.3564000E+09  0.9118800E+02  0.7818608E-02  0.1180000E+00
       11   -1    0    0    0    0  0.00000000000E+00  0.00000000000E+00  0.39999999673E+01  0.40000000000E+01  0.51109989000E-03 0. -1.
     -623   -1    0    0    0    0  0.00000000000E+00  0.00000000000E+00  0.12525980253E-10  0.17130000000E+03  0.17130000000E+03 0.  1.
       11    1    1    2    0    0  0.45307878856E-02  0.26319364331E-02  0.93626392028E-01  0.93774290909E-01  0.51109989000E-03 0. -1.
     -623    1    1    2    0    0  0.28937867493E-03 -0.44823137733E-03  0.16988368460E-03  0.17130000000E+03  0.17130000000E+03 0.  1.
      622    1    1    2    0    0 -0.48201665605E-02 -0.21837050559E-02  0.39062036912E+01  0.39062257077E+01  0.12000000000E-01 0. -1.
</event>
<event>
 5   0  0.3564000E+09  0.9118800E+02  0.7818608E-02  0.1180000E+00
       11   -1    0    0    0    0  0.00000000000E+00  0.00000000000E+00  0.39999999673E+01  0.40000000000E+01  0.51109989000E-03 0.  1.
     -623   -1    0    0    0    0  0.00000000000E+00  0.00000000000E+00  0.12525980253E-10  0.17130000000E+03  0.17130000000E+03 0.  1.
       11    1    1    2    0    0  0.99122997224E-04  0.29883438038E-03  0.13357090936E-01  0.13370573155E-01  0.51109989000E-03 0. -1.
     -623    1    1    2    0    0 -0.66023174934E-04  0.64148462108E-03  0.31622239012E-04  0.17130000000E+03  0.17130000000E+03 0.  1.
      622    1    1    2    0    0 -0.33099822290E-04 -0.94031900146E-03  0.39866112542E+01  0.39866294256E+01  0.12000000000E-01 0.  1.
</event>
<event>
 5   0  0.3564000E+09  0.9118800E+02  0.7818608E-02  0.1180000E+00
       11   -1    0    0    0    0  0.00000000000E+00  0.00000000000E+00  0.39999999673E+01  0.40000000000E+01  0.51109989000E-03 0. -1.
     -623   -1    0    0    0    0  0.00000000000E+00  0.00000000000E+00  0.12525980253E-10  0.17130000000E+03  0.17130000000E+03 0. -1.
       11    1    1    2    0    0  0.21698414803E-02 -0.19419780177E-02  0.64411100854E+00  0.64411779361E+00  0.51109989000E-03 0. -1.
     -623    1    1    2    0    0  0.11338027425E-03  0.15210706305E-03  0.29461500266E-04  0.17130000000E+03  0.17130000000E+03 0. -1.
      622    1    1    2    0    0 -0.22832217548E-02  0.17898709542E-02  0.33558595079E+01  0.33558822168E+01  0.12000000000E-01 0. -1.
</event>
<event>
 5   0  0.3564000E+09  0.9118800E+02  0.7818608E-02  0.1180000E+00
       11   -1    0    0    0    0  0.00000000000E+00  0.00000000000E+00  0.39999999673E+01  0.40000000000E+01  0.51109989000E-03 0.  1.
     -623   -1    0    0    0    0  0.00000000000E+00  0.00000000000E+00  0.12525980253E-10  0.17130000000E+03  0.17130000000E+03 0.  1.
       11    1    1    2    0    0  0.18368696649E-02  0.12263252724E-02  0.20977688617E+00  0.20978913499E+00  0.51109989000E-03 0.  1.
     -623    1    1    2    0    0 -0.28748690624E-02 -0.21851046738E-02  0.31513995092E-04  0.17130000004E+03  0.17130000000E+03 0.  1.
      622    1    1    2    0    0  0.10379994067E-02  0.95877940843E-03  0.37901915801E+01  0.37902108399E+01  0.12000000000E-01 0.  1.
</event>
<event>
 5   0  0.3564000E+09  0.9118800E+02  0.7818608E-02  0.1180000E+00
       11   -1    0    0    0    0  0.00000000000E+00  0.00000000000E+00  0.39999999673E+01  0.40000000000E+01  0.51109989000E-03 0. -1.
     -623   -1    0    0    0    0  0.00000000000E+00  0.00000000000E+00  0.12525980253E-10  0.17130000000E+03  0.17130000000E+03 0.  1.
       11    1    1    2    0    0 -0.10064745567E-02  0.82673355443E-02  0.36799032195E+00  0.36808490882E+00  0.51109989000E-03 0. -1.
     -623    1    1    2    0    0 -0.53651872527E-02 -0.50758298770E-02  0.12152916446E-03  0.17130000016E+03  0.17130000000E+03 0.  1.
      622    1    1    2    0    0  0.63716618094E-02 -0.31915056674E-02  0.36318881162E+01  0.36319149319E+01  0.12000000000E-01 0. -1.
</event>
<event>
 5   0  0.3564000E+09  0.9118800E+02  0.7818608E-02  0.1180000E+00
       11   -1    0    0    0    0  0.00000000000E+00  0.00000000000E+00  0.39999999673E+01  0.40000000000E+01  0.51109989000E-03 0.  1.
     -623   -1    0    0    0    0  0.00000000000E+00  0.00000000000E+00  0.12525980253E-10  0.17130000000E+03  0.17130000000E+03 0.  1.
       11    1    1    2    0    0 -0.17402375777E-01  0.29502426925E-01  0.89396621934E+00  0.89462232167E+00  0.51109989000E-03 0.  1.
     -623    1    1    2    0    0  0.78963173560E-03 -0.26399865169E-03  0.86134859778E-03  0.17130000000E+03  0.17130000000E+03 0.  1.
      622    1    1    2    0    0  0.16612744041E-01 -0.29238428273E-01  0.31051723994E+01  0.31053776741E+01  0.12000000000E-01 0.  1.
</event>
<event>
 5   0  0.3564000E+09  0.9118800E+02  0.7818608E-02  0.1180000E+00
       11   -1    0    0    0    0  0.00000000000E+00  0.00000000000E+00  0.39999999673E+01  0.40000000000E+01  0.51109989000E-03 0. -1.
     -623   -1    0    0    0    0  0.00000000000E+00  0.00000000000E+00  0.12525980253E-10  0.17130000000E+03  0.17130000000E+03 0.  1.
       11    1    1    2    0    0  0.12766636648E-02  0.28580530304E-03  0.77135751854E-01  0.77148538491E-01  0.51109989000E-03 0. -1.
     -623    1    1    2    0    0 -0.22339191934E-02  0.38820668162E-03  0.31297744784E-04  0.17130000002E+03  0.17130000000E+03 0.  1.
      622    1    1    2    0    0  0.95725552864E-03 -0.67401198467E-03  0.39228329178E+01  0.39228514465E+01  0.12000000000E-01 0. -1.
</event>
<event>
 5   0  0.3564000E+09  0.9118800E+02  0.7818608E-02  0.1180000E+00
       11   -1    0    0    0    0  0.00000000000E+00  0.00000000000E+00  0.39999999673E+01  0.40000000000E+01  0.51109989000E-03 0.  1.
     -623   -1    0    0    0    0  0.00000000000E+00  0.00000000000E+00  0.12525980253E-10  0.17130000000E+03  0.17130000000E+03 0.  1.
       11    1    1    2    0    0 -0.57692960962E-02  0.39980120227E-02  0.35726495817E-01  0.36413082838E-01  0.51109989000E-03 0.  1.
     -623    1    1    2    0    0 -0.13775505583E-02  0.70126327523E-03  0.71395739350E-03  0.17130000001E+03  0.17130000000E+03 0.  1.
      622    1    1    2    0    0  0.71468466546E-02 -0.46992752979E-02  0.39635595141E+01  0.39635869087E+01  0.12000000000E-01 0.  1.
</event>
<event>
 5   0  0.3564000E+09  0.9118800E+02  0.7818608E-02  0.1180000E+00
       11   -1    0    0    0    0  0.00000000000E+00  0.00000000000E+00  0.39999999673E+01  0.40000000000E+01  0.51109989000E-03 0.  1.
     -623   -1    0    0    0    0  0.00000000000E+00  0.00000000000E+00  0.12525980253E-10  0.17130000000E+03  0.17130000000E+03 0. -1.
       11    1    1    2    0    0 -0.31632987455E-02 -0.19167798134E-02  0.56057648299E-01  0.56181862373E-01  0.51109989000E-03 0.  1.
     -623    1    1    2    0    0  0.37515108997E-03 -0.82704467426E-03  0.14438041522E-03  0.17130000000E+03  0.17130000000E+03 0. -1.
      622    1    1    2    0    0  0.27881476557E-02  0.27438244873E-02  0.39437979371E+01  0.39438181336E+01  0.12000000000E-01 0.  1.
</event>
<event>
 5   0  0.3564000E+09  0.9118800E+02  0.7818608E-02  0.1180000E+00
       11   -1    0    0    0    0  0.00000000000E+00  0.00000000000E+00  0.39999999673E+01  0.40000000000E+01  0.51109989000E-03 0.  1.
     -623   -1    0    0    0    0  0.00000000000E+00  0.00000000000E+00  0.12525980253E-10  0.17130000000E+03  0.17130000000E+03 0. -1.
       11    1    1    2    0    0 -0.41014546704E-03 -0.21984829540E-03  0.15436259911E-01  0.15451727920E-01  0.51109989000E-03 0.  1.
     -623    1    1    2    0    0 -0.14848261920E-03  0.18637549776E-03  0.33544681485E-04  0.17130000000E+03  0.17130000000E+03 0. -1.
      622    1    1    2    0    0  0.55862808640E-03  0.33472797440E-04  0.39845301670E+01  0.39845482761E+01  0.12000000000E-01 0.  1.
</event>
<event>
 5   0  0.3564000E+09  0.9118800E+02  0.7818608E-02  0.1180000E+00
       11   -1    0    0    0    0  0.00000000000E+00  0.00000000000E+00  0.39999999673E+01  0.40000000000E+01  0.51109989000E-03 0. -1.
     -623   -1    0    0    0    0  0.00000000000E+00  0.00000000000E+00  0.12525980253E-10  0.17130000000E+03  0.17130000000E+03 0. -1.
       11    1    1    2    0    0  0.10467912193E-02  0.26658573516E-02  0.69214594653E+00  0.69215206067E+00  0.51109989000E-03 0. -1.
     -623    1    1    2    0    0 -0.30428109114E-02 -0.36523652015E-02  0.28663278893E-04  0.17130000007E+03  0.17130000000E+03 0. -1.
      622    1    1    2    0    0  0.19960196921E-02  0.98650784989E-03  0.33078253576E+01  0.33078478734E+01  0.12000000000E-01 0. -1.
</event>
<event>
 5   0  0.3564000E+09  0.9118800E+02  0.7818608E-02  0.1180000E+00
       11   -1    0    0    0    0  0.00000000000E+00  0.00000000000E+00  0.39999999673E+01  0.40000000000E+01  0.51109989000E-03 0. -1.
     -623   -1    0    0    0    0  0.00000000000E+00  0.00000000000E+00  0.12525980253E-10  0.17130000000E+03  0.17130000000E+03 0. -1.
       11    1    1    2    0    0 -0.15846173047E-02  0.32917589842E-03  0.84694980727E-01  0.84711984685E-01  0.51109989000E-03 0. -1.
     -623    1    1    2    0    0  0.11765955630E-03 -0.12414489421E-03  0.35641087863E-04  0.17130000000E+03  0.17130000000E+03 0. -1.
      622    1    1    2    0    0  0.14669577484E-02 -0.20503100422E-03  0.39152693455E+01  0.39152880152E+01  0.12000000000E-01 0. -1.
</event>
<event>
 5   0  0.3564000E+09  0.9118800E+02  0.7818608E-02  0.1180000E+00
       11   -1    0    0    0    0  0.00000000000E+00  0.00000000000E+00  0.39999999673E+01  0.40000000000E+01  0.51109989000E-03 0. -1.
     -623   -1    0    0    0    0  0.00000000000E+00  0.00000000000E+00  0.12525980253E-10  0.17130000000E+03  0.17130000000E+03 0.  1.
       11    1    1    2    0    0 -0.52851963462E-03 -0.15866126738E-02  0.10359691205E+00  0.10361166963E+00  0.51109989000E-03 0. -1.
     -623    1    1    2    0    0 -0.17241064661E-03 -0.44884889835E-02  0.38061628447E-04  0.17130000006E+03  0.17130000000E+03 0.  1.
      622    1    1    2    0    0  0.70093028122E-03  0.60751016573E-02  0.38963649937E+01  0.38963882715E+01  0.12000000000E-01 0.  0.
</event>
<event>
 5   0  0.3564000E+09  0.9118800E+02  0.7818608E-02  0.1180000E+00
       11   -1    0    0    0    0  0.00000000000E+00  0.00000000000E+00  0.39999999673E+01  0.40000000000E+01  0.51109989000E-03 0. -1.
     -623   -1    0    0    0    0  0.00000000000E+00  0.00000000000E+00  0.12525980253E-10  0.17130000000E+03  0.17130000000E+03 0. -1.
       11    1    1    2    0    0 -0.13796828359E-02 -0.28039925623E-02  0.71271033259E-01  0.71341343581E-01  0.51109989000E-03 0. -1.
     -623    1    1    2    0    0 -0.72663675556E-02  0.26723471415E-02  0.98295799973E-04  0.17130000017E+03  0.17130000000E+03 0. -1.
      622    1    1    2    0    0  0.86460503971E-02  0.13164541872E-03  0.39286306414E+01  0.39286584845E+01  0.12000000000E-01 0. -1.
</event>
<event>
 5   0  0.3564000E+09  0.9118800E+02  0.7818608E-02  0.1180000E+00
       11   -1    0    0    0    0  0.00000000000E+00  0.00000000000E+00  0.39999999673E+01  0.40000000000E+01  0.51109989000E-03 0. -1.
     -623   -1    0    0    0    0  0.00000000000E+00  0.00000000000E+00  0.12525980253E-10  0.17130000000E+03  0.17130000000E+03 0.  1.
       11    1    1    2    0    0  0.11825196443E-01 -0.48297770696E-02  0.65042996699E-01  0.66287364257E-01  0.51109989000E-03 0. -1.
     -623    1    1    2    0    0 -0.28765148416E-02  0.47319633647E-02  0.12729123360E-02  0.17130000009E+03  0.17130000000E+03 0.  1.
      622    1    1    2    0    0 -0.89486816016E-02  0.97813704661E-04  0.39336840585E+01  0.39337125417E+01  0.12000000000E-01 0. -1.
</event>
<event>
 5   0  0.3564000E+09  0.9118800E+02  0.7818608E-02  0.1180000E+00
       11   -1    0    0    0    0  0.00000000000E+00  0.00000000000E+00  0.39999999673E+01  0.40000000000E+01  0.51109989000E-03 0.  1.
     -623   -1    0    0    0    0  0.00000000000E+00  0.00000000000E+00  0.12525980253E-10  0.17130000000E+03  0.17130000000E+03 0. -1.
       11    1    1    2    0    0  0.12903631980E-03  0.22708573738E-02  0.82801885461E-01  0.82834696248E-01  0.51109989000E-03 0.  1.
     -623    1    1    2    0    0 -0.17574390619E-02 -0.13523634646E-02  0.51619347628E-04  0.17130000001E+03  0.17130000000E+03 0. -1.
      622    1    1    2    0    0  0.16284027418E-02 -0.91849390939E-03  0.39171464620E+01  0.39171652889E+01  0.12000000000E-01 0.  1.
</event>
<event>
 5   0  0.3564000E+09  0.9118800E+02  0.7818608E-02  0.1180000E+00
       11   -1    0    0    0    0  0.00000000000E+00  0.00000000000E+00  0.39999999673E+01  0.40000000000E+01  0.51109989000E-03 0. -1.
     -623   -1    0    0    0    0  0.00000000000E+00  0.00000000000E+00  0.12525980253E-10  0.17130000000E+03  0.17130000000E+03 0.  1.
       11    1    1    2    0    0  0.18188350366E-03 -0.93844528601E-03  0.21565024073E+00  0.21565296500E+00  0.51109989000E-03 0. -1.
     -623    1    1    2    0    0 -0.41959870378E-03  0.20587724305E-02  0.21903598324E-04  0.17130000001E+03  0.17130000000E+03 0.  1.
      622    1    1    2    0    0  0.23771519933E-03 -0.11203271406E-02  0.37843278155E+01  0.37843470146E+01  0.12000000000E-01 0. -1.
</event>
<event>
 5   0  0.3564000E+09  0.9118800E+02  0.7818608E-02  0.1180000E+00
       11   -1    0    0    0    0  0.00000000000E+00  0.00000000000E+00  0.39999999673E+01  0.40000000000E+01  0.51109989000E-03 0. -1.
     -623   -1    0    0    0    0  0.00000000000E+00  0.00000000000E+00  0.12525980253E-10  0.17130000000E+03  0.17130000000E+03 0. -1.
       11    1    1    2    0    0  0.11829951345E-02 -0.64705596547E-03  0.11577811772E+00  0.11578709740E+00  0.51109989000E-03 0. -1.
     -623    1    1    2    0    0  0.46986785949E-02  0.25873086436E-02  0.32505432746E-04  0.17130000008E+03  0.17130000000E+03 0. -1.
      622    1    1    2    0    0 -0.58816737294E-02 -0.19402526782E-02  0.38841893442E+01  0.38842128186E+01  0.12000000000E-01 0.  0.
</event>
<event>
 5   0  0.3564000E+09  0.9118800E+02  0.7818608E-02  0.1180000E+00
       11   -1    0    0    0    0  0.00000000000E+00  0.00000000000E+00  0.39999999673E+01  0.40000000000E+01  0.51109989000E-03 0. -1.
     -623   -1    0    0    0    0  0.00000000000E+00  0.00000000000E+00  0.12525980253E-10  0.17130000000E+03  0.17130000000E+03 0. -1.
       11    1    1    2    0    0 -0.94360123946E-03 -0.10795113925E-02  0.31091861680E-01  0.31129099104E-01  0.51109989000E-03 0. -1.
     -623    1    1    2    0    0  0.10016266748E-03 -0.11384233271E-03  0.55615110467E-04  0.17130000000E+03  0.17130000000E+03 0. -1.
      622    1    1    2    0    0  0.84343857198E-03  0.11933537252E-02  0.39688524906E+01  0.39688709008E+01  0.12000000000E-01 0. -1.
</event>
<event>
 5   0  0.3564000E+09  0.9118800E+02  0.7818608E-02  0.1180000E+00
       11   -1    0    0    0    0  0.00000000000E+00  0.00000000000E+00  0.39999999673E+01  0.40000000000E+01  0.51109989000E-03 0. -1.
     -623   -1    0    0    0    0  0.00000000000E+00  0.00000000000E+00  0.12525980253E-10  0.17130000000E+03  0.17130000000E+03 0.  1.
       11    1    1    2    0    0 -0.59071645248E-02 -0.98019315187E-02  0.11571883488E+01  0.11572450511E+01  0.51109989000E-03 0. -1.
     -623    1    1    2    0    0 -0.48077526021E-04 -0.18450915604E-03  0.10577643537E-03  0.17130000000E+03  0.17130000000E+03 0.  1.
      622    1    1    2    0    0  0.59552420508E-02  0.99864406746E-02  0.28427058396E+01  0.28427549462E+01  0.12000000000E-01 0.  0.
</event>
<event>
 5   0  0.3564000E+09  0.9118800E+02  0.7818608E-02  0.1180000E+00
       11   -1    0    0    0    0  0.00000000000E+00  0.00000000000E+00  0.39999999673E+01  0.40000000000E+01  0.51109989000E-03 0. -1.
     -623   -1    0    0    0    0  0.00000000000E+00  0.00000000000E+00  0.12525980253E-10  0.17130000000E+03  0.17130000000E+03 0.  1.
       11    1    1    2    0    0  0.30915867402E-02  0.37529033528E-02  0.42335826523E+00  0.42338649500E+00  0.51109989000E-03 0. -1.
     -623    1    1    2    0    0 -0.44746920389E-02 -0.46964715753E-02  0.48842695202E-04  0.17130000012E+03  0.17130000000E+03 0.  1.
      622    1    1    2    0    0  0.13831052981E-02  0.94356822199E-03  0.35765928589E+01  0.35766133817E+01  0.12000000000E-01 0. -1.
</event>
<event>
 5   0  0.3564000E+09  0.9118800E+02  0.7818608E-02  0.1180000E+00
       11   -1    0    0    0    0  0.00000000000E+00  0.00000000000E+00  0.39999999673E+01  0.40000000000E+01  0.51109989000E-03 0.  1.
     -623   -1    0    0    0    0  0.00000000000E+00  0.00000000000E+00  0.12525980253E-10  0.17130000000E+03  0.17130000000E+03 0. -1.
       11    1    1    2    0    0  0.13724036779E-02  0.19496597526E-02  0.12116437933E+00  0.12118891330E+00  0.51109989000E-03 0.  1.
     -623    1    1    2    0    0 -0.24126248479E-03  0.31761607170E-03  0.43891811591E-04  0.17130000000E+03  0.17130000000E+03 0. -1.
      622    1    1    2    0    0 -0.11311411925E-02 -0.22672758251E-02  0.38787917068E+01  0.38788110968E+01  0.12000000000E-01 0.  1.
</event>
<event>
 5   0  0.3564000E+09  0.9118800E+02  0.7818608E-02  0.1180000E+00
       11   -1    0    0    0    0  0.00000000000E+00  0.00000000000E+00  0.39999999673E+01  0.40000000000E+01  0.51109989000E-03 0.  1.
     -623   -1    0    0    0    0  0.00000000000E+00  0.00000000000E+00  0.12525980253E-10  0.17130000000E+03  0.17130000000E+03 0. -1.
       11    1    1    2    0    0 -0.21222126581E-02 -0.67759964512E-02  0.26222049850E-02  0.75865074872E-02  0.51109989000E-03 0.  1.
     -623    1    1    2    0    0  0.40613116639E-02  0.79628817226E-02  0.49832571443E-02  0.17130000031E+03  0.17130000000E+03 0. -1.
      622    1    1    2    0    0 -0.19390990058E-02 -0.11868852714E-02  0.39923945052E+01  0.39924131868E+01  0.12000000000E-01 0.  1.
</event>
<event>
 5   0  0.3564000E+09  0.9118800E+02  0.7818608E-02  0.1180000E+00
       11   -1    0    0    0    0  0.00000000000E+00  0.00000000000E+00  0.39999999673E+01  0.40000000000E+01  0.51109989000E-03 0.  1.
     -623   -1    0    0    0    0  0.00000000000E+00  0.00000000000E+00  0.12525980253E-10  0.17130000000E+03  0.17130000000E+03 0. -1.
       11    1    1    2    0    0 -0.10017953952E-01 -0.14321397913E-01  0.38242076600E+00  0.38282027811E+00  0.51109989000E-03 0.  1.
     -623    1    1    2    0    0  0.15901032915E-01  0.14358790823E-01  0.42550929615E-03  0.17130000134E+03  0.17130000000E+03 0. -1.
      622    1    1    2    0    0 -0.58830789630E-02 -0.37392909676E-04  0.36171536921E+01  0.36171783816E+01  0.12000000000E-01 0.  1.
</event>
<event>
 5   0  0.3564000E+09  0.9118800E+02  0.7818608E-02  0.1180000E+00
       11   -1    0    0    0    0  0.00000000000E+00  0.00000000000E+00  0.39999999673E+01  0.40000000000E+01  0.51109989000E-03 0. -1.
     -623   -1    0    0    0    0  0.00000000000E+00  0.00000000000E+00  0.12525980253E-10  0.17130000000E+03  0.17130000000E+03 0. -1.
       11    1    1    2    0    0  0.22376674879E-02  0.79991895018E-03  0.55772379409E-01  0.55825321783E-01  0.51109989000E-03 0.  1.
     -623    1    1    2    0    0 -0.20239877392E-02 -0.56916430653E-03  0.71190002032E-04  0.17130000001E+03  0.17130000000E+03 0. -1.
      622    1    1    2    0    0 -0.21367974871E-03 -0.23075464365E-03  0.39441563979E+01  0.39441746653E+01  0.12000000000E-01 0. -1.
</event>
<event>
 5   0  0.3564000E+09  0.9118800E+02  0.7818608E-02  0.1180000E+00
       11   -1    0    0    0    0  0.00000000000E+00  0.00000000000E+00  0.39999999673E+01  0.40000000000E+01  0.51109989000E-03 0.  1.
     -623   -1    0    0    0    0  0.00000000000E+00  0.00000000000E+00  0.12525980253E-10  0.17130000000E+03  0.17130000000E+03 0. -1.
       11    1    1    2    0    0 -0.14751540937E-02 -0.12055098801E-02  0.11370075462E+00  0.11371786209E+00  0.51109989000E-03 0.  1.
     -623    1    1    2    0    0  0.47865520140E-04 -0.11434649605E-03  0.36087847220E-04  0.17130000000E+03  0.17130000000E+03 0. -1.
      622    1    1    2    0    0  0.14272885736E-02  0.13198563762E-02  0.38862631281E+01  0.38862821411E+01  0.12000000000E-01 0.  1.
</event>
<event>
 5   0  0.3564000E+09  0.9118800E+02  0.7818608E-02  0.1180000E+00
       11   -1    0    0    0    0  0.00000000000E+00  0.00000000000E+00  0.39999999673E+01  0.40000000000E+01  0.51109989000E-03 0.  1.
     -623   -1    0    0    0    0  0.00000000000E+00  0.00000000000E+00  0.12525980253E-10  0.17130000000E+03  0.17130000000E+03 0. -1.
       11    1    1    2    0    0  0.30381768593E-02  0.20945079019E-02  0.68784665916E-01  0.68885477208E-01  0.51109989000E-03 0.  1.
     -623    1    1    2    0    0  0.14869607418E-03 -0.70039254476E-04  0.12090729435E-03  0.17130000000E+03  0.17130000000E+03 0. -1.
      622    1    1    2    0    0 -0.31868729335E-02 -0.20244686474E-02  0.39310943946E+01  0.39311145232E+01  0.12000000000E-01 0.  1.
</event>
<event>
 5   0  0.3564000E+09  0.9118800E+02  0.7818608E-02  0.1180000E+00
       11   -1    0    0    0    0  0.00000000000E+00  0.00000000000E+00  0.39999999673E+01  0.40000000000E+01  0.51109989000E-03 0. -1.
     -623   -1    0    0    0    0  0.00000000000E+00  0.00000000000E+00  0.12525980253E-10  0.17130000000E+03  0.17130000000E+03 0. -1.
       11    1    1    2    0    0  0.21078138454E-02  0.13074163638E-02  0.87025567329E+00  0.87025935808E+00  0.51109989000E-03 0. -1.
     -623    1    1    2    0    0  0.12843208661E-03  0.28569101040E-03  0.27862015090E-04  0.17130000000E+03  0.17130000000E+03 0. -1.
      622    1    1    2    0    0 -0.22362459321E-02 -0.15931073742E-02  0.31297164321E+01  0.31297406416E+01  0.12000000000E-01 0. -1.
</event>
<event>
 5   0  0.3564000E+09  0.9118800E+02  0.7818608E-02  0.1180000E+00
       11   -1    0    0    0    0  0.00000000000E+00  0.00000000000E+00  0.39999999673E+01  0.40000000000E+01  0.51109989000E-03 0.  1.
     -623   -1    0    0    0    0  0.00000000000E+00  0.00000000000E+00  0.12525980253E-10  0.17130000000E+03  0.17130000000E+03 0. -1.
       11    1    1    2    0    0 -0.38937140531E-03  0.19499647219E-02  0.39088345690E+00  0.39088884875E+00  0.51109989000E-03 0.  1.
     -623    1    1    2    0    0  0.12720515186E-02 -0.41902536692E-03  0.25746652108E-04  0.17130000001E+03  0.17130000000E+03 0. -1.
      622    1    1    2    0    0 -0.88268010909E-03 -0.15309393564E-02  0.36090907507E+01  0.36091111329E+01  0.12000000000E-01 0.  1.
</event>
<event>
 5   0  0.3564000E+09  0.9118800E+02  0.7818608E-02  0.1180000E+00
       11   -1    0    0    0    0  0.00000000000E+00  0.00000000000E+00  0.39999999673E+01  0.40000000000E+01  0.51109989000E-03 0. -1.
     -623   -1    0    0    0    0  0.00000000000E+00  0.00000000000E+00  0.12525980253E-10  0.17130000000E+03  0.17130000000E+03 0.  1.
       11    1    1    2    0    0 -0.52674028956E-03  0.11634809620E-02  0.23350081517E-01  0.23390567983E-01  0.51109989000E-03 0.  1.
     -623    1    1    2    0    0  0.69266040607E-05 -0.60191318284E-04  0.58746791406E-04  0.17130000000E+03  0.17130000000E+03 0.  1.
      622    1    1    2    0    0  0.51981368550E-03 -0.11032896437E-02  0.39765911391E+01  0.39766094320E+01  0.12000000000E-01 0. -1.
</event>
<event>
 5   0  0.3564000E+09  0.9118800E+02  0.7818608E-02  0.1180000E+00
       11   -1    0    0    0    0  0.00000000000E+00  0.00000000000E+00  0.39999999673E+01  0.40000000000E+01  0.51109989000E-03 0. -1.
     -623   -1    0    0    0    0  0.00000000000E+00  0.00000000000E+00  0.12525980253E-10  0.17130000000E+03  0.17130000000E+03 0. -1.
       11    1    1    2    0    0 -0.49115173278E-02 -0.14965074132E-01  0.72382324594E+00  0.72399477142E+00  0.51109989000E-03 0. -1.
     -623    1    1    2    0    0 -0.42634653443E-02  0.30306178186E-01  0.24497394248E-03  0.17130000273E+03  0.17130000000E+03 0. -1.
      622    1    1    2    0    0  0.91749826762E-02 -0.15341104083E-01  0.32759317513E+01  0.32760024983E+01  0.12000000000E-01 0. -1.
</event>
<event>
 5   0  0.3564000E+09  0.9118800E+02  0.7818608E-02  0.1180000E+00
       11   -1    0    0    0    0  0.00000000000E+00  0.00000000000E+00  0.39999999673E+01  0.40000000000E+01  0.51109989000E-03 0.  1.
     -623   -1    0    0    0    0  0.00000000000E+00  0.00000000000E+00  0.12525980253E-10  0.17130000000E+03  0.17130000000E+03 0. -1.
       11    1    1    2    0    0  0.22763385689E-03 -0.41014862481E-03  0.60697979016E-01  0.60701943287E-01  0.51109989000E-03 0.  1.
     -623    1    1    2    0    0 -0.22634834619E-03  0.43303020970E-03  0.22209805985E-04  0.17130000000E+03  0.17130000000E+03 0. -1.
      622    1    1    2    0    0 -0.12855106924E-05 -0.22881584901E-04  0.39392797786E+01  0.39392980561E+01  0.12000000000E-01 0.  1.
</event>
<event>
 5   0  0.3564000E+09  0.9118800E+02  0.7818608E-02  0.1180000E+00
       11   -1    0    0    0    0  0.00000000000E+00  0.00000000000E+00  0.39999999673E+01  0.40000000000E+01  0.51109989000E-03 0.  1.
     -623   -1    0    0    0    0  0.00000000000E+00  0.00000000000E+00  0.12525980253E-10  0.17130000000E+03  0.17130000000E+03 0. -1.
       11    1    1    2    0    0 -0.12828271089E-02 -0.15159373162E-02  0.55807537214E-01  0.55845198037E-01  0.51109989000E-03 0.  1.
     -623    1    1    2    0    0 -0.88584596509E-03  0.94173999415E-05  0.56769324456E-04  0.17130000000E+03  0.17130000000E+03 0. -1.
      622    1    1    2    0    0  0.21686730740E-02  0.15065199163E-02  0.39441356608E+01  0.39441547997E+01  0.12000000000E-01 0.  0.
</event>
<event>
 5   0  0.3564000E+09  0.9118800E+02  0.7818608E-02  0.1180000E+00
       11   -1    0    0    0    0  0.00000000000E+00  0.00000000000E+00  0.39999999673E+01  0.40000000000E+01  0.51109989000E-03 0. -1.
     -623   -1    0    0    0    0  0.00000000000E+00  0.00000000000E+00  0.12525980253E-10  0.17130000000E+03  0.17130000000E+03 0.  1.
       11    1    1    2    0    0 -0.36509455590E-02 -0.17617566819E-02  0.78092374624E-01  0.78199190453E-01  0.51109989000E-03 0. -1.
     -623    1    1    2    0    0  0.77980118807E-03 -0.57068263510E-03  0.12688950061E-03  0.17130000000E+03  0.17130000000E+03 0.  1.
      622    1    1    2    0    0  0.28711443713E-02  0.23324393167E-02  0.39217807011E+01  0.39218008046E+01  0.12000000000E-01 0. -1.
</event>
<event>
 5   0  0.3564000E+09  0.9118800E+02  0.7818608E-02  0.1180000E+00
       11   -1    0    0    0    0  0.00000000000E+00  0.00000000000E+00  0.39999999673E+01  0.40000000000E+01  0.51109989000E-03 0. -1.
     -623   -1    0    0    0    0  0.00000000000E+00  0.00000000000E+00  0.12525980253E-10  0.17130000000E+03  0.17130000000E+03 0.  1.
       11    1    1    2    0    0 -0.24395184926E-02 -0.26133761736E-02  0.32691871046E+00  0.32693865702E+00  0.51109989000E-03 0. -1.
     -623    1    1    2    0    0  0.45316503736E-02 -0.47494213177E-02  0.47617332231E-04  0.17130000013E+03  0.17130000000E+03 0.  1.
      622    1    1    2    0    0 -0.20921318784E-02  0.73627974886E-02  0.36730336373E+01  0.36730612149E+01  0.12000000000E-01 0. -1.
</event>
<event>
 5   0  0.3564000E+09  0.9118800E+02  0.7818608E-02  0.1180000E+00
       11   -1    0    0    0    0  0.00000000000E+00  0.00000000000E+00  0.39999999673E+01  0.40000000000E+01  0.51109989000E-03 0. -1.
     -623   -1    0    0    0    0  0.00000000000E+00  0.00000000000E+00  0.12525980253E-10  0.17130000000E+03  0.17130000000E+03 0.  1.
       11    1    1    2    0    0 -0.12827092487E-02 -0.42192003610E-02  0.11221227259E-01  0.12067483463E-01  0.51109989000E-03 0. -1.
     -623    1    1    2    0    0  0.36648691698E-02  0.56358290750E-02  0.86537527433E-03  0.17130000013E+03  0.17130000000E+03 0.  1.
      622    1    1    2    0    0 -0.23821599210E-02 -0.14166287140E-02  0.39879133648E+01  0.39879323824E+01  0.12000000000E-01 0. -1.
</event>
<event>
 5   0  0.3564000E+09  0.9118800E+02  0.7818608E-02  0.1180000E+00
       11   -1    0    0    0    0  0.00000000000E+00  0.00000000000E+00  0.39999999673E+01  0.40000000000E+01  0.51109989000E-03 0.  1.
     -623   -1    0    0    0    0  0.00000000000E+00  0.00000000000E+00  0.12525980253E-10  0.17130000000E+03  0.17130000000E+03 0. -1.
       11    1    1    2    0    0  0.14025109520E-03 -0.22192894560E-04  0.32153609143E-01  0.32157984474E-01  0.51109989000E-03 0.  1.
     -623    1    1    2    0    0  0.11702789526E-03 -0.28092637574E-03  0.22508807549E-04  0.17130000000E+03  0.17130000000E+03 0. -1.
      622    1    1    2    0    0 -0.25727899046E-03  0.30311927030E-03  0.39678238494E+01  0.39678420153E+01  0.12000000000E-01 0.  1.
</event>
<event>
 5   0  0.3564000E+09  0.9118800E+02  0.7818608E-02  0.1180000E+00
       11   -1    0    0    0    0  0.00000000000E+00  0.00000000000E+00  0.39999999673E+01  0.40000000000E+01  0.51109989000E-03 0.  1.
     -623   -1    0    0    0    0  0.00000000000E+00  0.00000000000E+00  0.12525980253E-10  0.17130000000E+03  0.17130000000E+03 0. -1.
       11    1    1    2    0    0 -0.35691305529E-02 -0.28467834437E-02  0.16830076533E+00  0.16836345120E+00  0.51109989000E-03 0.  1.
     -623    1    1    2    0    0  0.43529909568E-02  0.26592513940E-02  0.81604943730E-04  0.17130000008E+03  0.17130000000E+03 0. -1.
      622    1    1    2    0    0 -0.78386040382E-03  0.18753204974E-03  0.38316175971E+01  0.38316364728E+01  0.12000000000E-01 0.  1.
</event>
<event>
 5   0  0.3564000E+09  0.9118800E+02  0.7818608E-02  0.1180000E+00
       11   -1    0    0    0    0  0.00000000000E+00  0.00000000000E+00  0.39999999673E+01  0.40000000000E+01  0.51109989000E-03 0. -1.
     -623   -1    0    0    0    0  0.00000000000E+00  0.00000000000E+00  0.12525980253E-10  0.17130000000E+03  0.17130000000E+03 0.  1.
       11    1    1    2    0    0 -0.23291508129E-01 -0.42148971161E-01  0.30853561134E+00  0.31227154018E+00  0.51109989000E-03 0. -1.
     -623    1    1    2    0    0 -0.14648518770E-02 -0.56420262873E-02  0.41483626977E-02  0.17130000015E+03  0.17130000000E+03 0.  1.
      622    1    1    2    0    0  0.24756360006E-01  0.47790997448E-01  0.36873159933E+01  0.36877283104E+01  0.12000000000E-01 0. -1.
</event>
<event>
 5   0  0.3564000E+09  0.9118800E+02  0.7818608E-02  0.1180000E+00
       11   -1    0    0    0    0  0.00000000000E+00  0.00000000000E+00  0.39999999673E+01  0.40000000000E+01  0.51109989000E-03 0. -1.
     -623   -1    0    0    0    0  0.00000000000E+00  0.00000000000E+00  0.12525980253E-10  0.17130000000E+03  0.17130000000E+03 0. -1.
       11    1    1    2    0    0  0.75620411219E-03  0.24024265860E-02  0.54187483796E+00  0.54188093224E+00  0.51109989000E-03 0. -1.
     -623    1    1    2    0    0  0.37929244250E-04  0.14022740740E-03  0.27908302003E-04  0.17130000000E+03  0.17130000000E+03 0. -1.
      622    1    1    2    0    0 -0.79413335644E-03 -0.25426539934E-02  0.34580972211E+01  0.34581190677E+01  0.12000000000E-01 0. -1.
</event>
<event>
 5   0  0.3564000E+09  0.9118800E+02  0.7818608E-02  0.1180000E+00
       11   -1    0    0    0    0  0.00000000000E+00  0.00000000000E+00  0.39999999673E+01  0.40000000000E+01  0.51109989000E-03 0.  1.
     -623   -1    0    0    0    0  0.00000000000E+00  0.00000000000E+00  0.12525980253E-10  0.17130000000E+03  0.17130000000E+03 0. -1.
       11    1    1    2    0    0  0.11629343350E-02  0.42333773906E-03  0.10453845848E-01  0.10539247944E-01  0.51109989000E-03 0.  1.
     -623    1    1    2    0    0 -0.11485855393E-02 -0.14400812767E-02  0.10355657223E-03  0.17130000001E+03  0.17130000000E+03 0. -1.
      622    1    1    2    0    0 -0.14348794741E-04  0.10167435389E-02  0.39894425686E+01  0.39894607457E+01  0.12000000000E-01 0.  1.
</event>
<event>
 5   0  0.3564000E+09  0.9118800E+02  0.7818608E-02  0.1180000E+00
       11   -1    0    0    0    0  0.00000000000E+00  0.00000000000E+00  0.39999999673E+01  0.40000000000E+01  0.51109989000E-03 0.  1.
     -623   -1    0    0    0    0  0.00000000000E+00  0.00000000000E+00  0.12525980253E-10  0.17130000000E+03  0.17130000000E+03 0. -1.
       11    1    1    2    0    0  0.96553225192E-03 -0.13105559286E-03  0.47443683116E-01  0.47456440225E-01  0.51109989000E-03 0.  1.
     -623    1    1    2    0    0  0.54886354146E-04 -0.10021625121E-03  0.31079155747E-04  0.17130000000E+03  0.17130000000E+03 0. -1.
      622    1    1    2    0    0 -0.10204186062E-02  0.23127184425E-03  0.39525252121E+01  0.39525435668E+01  0.12000000000E-01 0.  1.
</event>
<event>
 5   0  0.3564000E+09  0.9118800E+02  0.7818608E-02  0.1180000E+00
       11   -1    0    0    0    0  0.00000000000E+00  0.00000000000E+00  0.39999999673E+01  0.40000000000E+01  0.51109989000E-03 0. -1.
     -623   -1    0    0    0    0  0.00000000000E+00  0.00000000000E+00  0.12525980253E-10  0.17130000000E+03  0.17130000000E+03 0. -1.
       11    1    1    2    0    0  0.11873737550E-03 -0.67563211073E-03  0.10982072529E+00  0.10982405704E+00  0.51109989000E-03 0. -1.
     -623    1    1    2    0    0 -0.85214740897E-03 -0.47557601868E-04  0.21945792711E-04  0.17130000000E+03  0.17130000000E+03 0. -1.
      622    1    1    2    0    0  0.73341003839E-03  0.72318971288E-03  0.38901573194E+01  0.38901759640E+01  0.12000000000E-01 0. -1.
</event>
<event>
 5   0  0.3564000E+09  0.9118800E+02  0.7818608E-02  0.1180000E+00
       11   -1    0    0    0    0  0.00000000000E+00  0.00000000000E+00  0.39999999673E+01  0.40000000000E+01  0.51109989000E-03 0. -1.
     -623   -1    0    0    0    0  0.00000000000E+00  0.00000000000E+00  0.12525980253E-10  0.17130000000E+03  0.17130000000E+03 0. -1.
       11    1    1    2    0    0  0.30362651678E-03 -0.27796313498E-02  0.10894194293E+01  0.10894231376E+01  0.51109989000E-03 0. -1.
     -623    1    1    2    0    0 -0.58192649072E-03  0.97221827627E-03  0.28991355667E-04  0.17130000000E+03  0.17130000000E+03 0. -1.
      622    1    1    2    0    0  0.27829997435E-03  0.18074130729E-02  0.29105515495E+01  0.29105768615E+01  0.12000000000E-01 0. -1.
</event>
<event>
 5   0  0.3564000E+09  0.9118800E+02  0.7818608E-02  0.1180000E+00
       11   -1    0    0    0    0  0.00000000000E+00  0.00000000000E+00  0.39999999673E+01  0.40000000000E+01  0.51109989000E-03 0.  1.
     -623   -1    0    0    0    0  0.00000000000E+00  0.00000000000E+00  0.12525980253E-10  0.17130000000E+03  0.17130000000E+03 0.  1.
       11    1    1    2    0    0  0.28546676560E-03  0.25178411196E-03  0.36715608239E-02  0.37264552184E-02  0.51109989000E-03 0. -1.
     -623    1    1    2    0    0  0.33179664462E-03 -0.15754317795E-03  0.72927771365E-04  0.17130000000E+03  0.17130000000E+03 0.  1.
      622    1    1    2    0    0 -0.61726341089E-03 -0.94240933690E-04  0.39962554868E+01  0.39962735524E+01  0.12000000000E-01 0.  1.
</event>
<event>
 5   0  0.3564000E+09  0.9118800E+02  0.7818608E-02  0.1180000E+00
       11   -1    0    0    0    0  0.00000000000E+00  0.00000000000E+00  0.39999999673E+01  0.40000000000E+01  0.51109989000E-03 0.  1.
     -623   -1    0    0    0    0  0.00000000000E+00  0.00000000000E+00  0.12525980253E-10  0.17130000000E+03  0.17130000000E+03 0. -1.
       11    1    1    2    0    0 -0.62636285871E-03 -0.54504865497E-04  0.35647389891E-01  0.35656597291E-01  0.51109989000E-03 0.  1.
     -623    1    1    2    0    0  0.56310128154E-03 -0.46783989806E-03  0.27373182663E-04  0.17130000000E+03  0.17130000000E+03 0. -1.
      622    1    1    2    0    0  0.63261575562E-04  0.52234476490E-03  0.39643252157E+01  0.39643434126E+01  0.12000000000E-01 0.  1.
</event>
<event>
 5   0  0.3564000E+09  0.9118800E+02  0.7818608E-02  0.1180000E+00
       11   -1    0    0    0    0  0.00000000000E+00  0.00000000000E+00  0.39999999673E+01  0.40000000000E+01  0.51109989000E-03 0.  1.
     -623   -1    0    0    0    0  0.00000000000E+00  0.00000000000E+00  0.12525980253E-10  0.17130000000E+03  0.17130000000E+03 0.  1.
       11    1    1    2    0    0 -0.35358305672E-04 -0.58945219321E-03  0.45104475839E-01  0.45111236604E-01  0.51109989000E-03 0.  1.
     -623    1    1    2    0    0  0.41113759428E-02  0.11802308579E-02  0.27131453083E-04  0.17130000005E+03  0.17130000000E+03 0.  1.
      622    1    1    2    0    0 -0.40760176326E-02 -0.59077866343E-03  0.39548683556E+01  0.39548887056E+01  0.12000000000E-01 0.  1.
</event>
<event>
 5   0  0.3564000E+09  0.9118800E+02  0.7818608E-02  0.1180000E+00
       11   -1    0    0    0    0  0.00000000000E+00  0.00000000000E+00  0.39999999673E+01  0.40000000000E+01  0.51109989000E-03 0. -1.
     -623   -1    0    0    0    0  0.00000000000E+00  0.00000000000E+00  0.12525980253E-10  0.17130000000E+03  0.17130000000E+03 0.  1.
       11    1    1    2    0    0 -0.60241593454E-02  0.17473480250E-01  0.89957913805E+00  0.89976913697E+00  0.51109989000E-03 0. -1.
     -623    1    1    2    0    0  0.30877816380E-03 -0.40798308227E-02  0.24743987192E-03  0.17130000005E+03  0.17130000000E+03 0.  1.
      622    1    1    2    0    0  0.57153811816E-02 -0.13393649427E-01  0.31001733894E+01  0.31002308140E+01  0.12000000000E-01 0. -1.
</event>
<event>
 5   0  0.3564000E+09  0.9118800E+02  0.7818608E-02  0.1180000E+00
       11   -1    0    0    0    0  0.00000000000E+00  0.00000000000E+00  0.39999999673E+01  0.40000000000E+01  0.51109989000E-03 0. -1.
     -623   -1    0    0    0    0  0.00000000000E+00  0.00000000000E+00  0.12525980253E-10  0.17130000000E+03  0.17130000000E+03 0.  1.
       11    1    1    2    0    0 -0.21181195116E-02 -0.39336737424E-02  0.79826049952E+00  0.79827316536E+00  0.51109989000E-03 0. -1.
     -623    1    1    2    0    0 -0.13884622416E-04  0.17872597629E-04  0.38225582632E-04  0.17130000000E+03  0.17130000000E+03 0.  1.
      622    1    1    2    0    0  0.21320041340E-02  0.39158011447E-02  0.32017012423E+01  0.32017268346E+01  0.12000000000E-01 0. -1.
</event>
<event>
 5   0  0.3564000E+09  0.9118800E+02  0.7818608E-02  0.1180000E+00
       11   -1    0    0    0    0  0.00000000000E+00  0.00000000000E+00  0.39999999673E+01  0.40000000000E+01  0.51109989000E-03 0.  1.
     -623   -1    0    0    0    0  0.00000000000E+00  0.00000000000E+00  0.12525980253E-10  0.17130000000E+03  0.17130000000E+03 0. -1.
       11    1    1    2    0    0 -0.19230328428E-02  0.16546643693E-03  0.34351375786E-01  0.34409354443E-01  0.51109989000E-03 0.  1.
     -623    1    1    2    0    0  0.11276937985E-03  0.12862236972E-03  0.76526439349E-04  0.17130000000E+03  0.17130000000E+03 0. -1.
      622    1    1    2    0    0  0.18102634630E-02 -0.29408880665E-03  0.39655720651E+01  0.39655906455E+01  0.12000000000E-01 0.  1.
</event>
<event>
 5   0  0.3564000E+09  0.9118800E+02  0.7818608E-02  0.1180000E+00
       11   -1    0    0    0    0  0.00000000000E+00  0.00000000000E+00  0.39999999673E+01  0.40000000000E+01  0.51109989000E-03 0. -1.
     -623   -1    0    0    0    0  0.00000000000E+00  0.00000000000E+00  0.12525980253E-10  0.17130000000E+03  0.17130000000E+03 0. -1.
       11    1    1    2    0    0  0.87704123193E-03  0.84203715083E-03  0.26879335879E-01  0.26911673086E-01  0.51109989000E-03 0. -1.
     -623    1    1    2    0    0 -0.17710742368E-02 -0.18346273678E-02  0.50670096678E-04  0.17130000002E+03  0.17130000000E+03 0. -1.
      622    1    1    2    0    0  0.89403300692E-03  0.99259021910E-03  0.39730699660E+01  0.39730883125E+01  0.12000000000E-01 0. -1.
</event>
<event>
 5   0  0.3564000E+09  0.9118800E+02  0.7818608E-02  0.1180000E+00
       11   -1    0    0    0    0  0.00000000000E+00  0.00000000000E+00  0.39999999673E+01  0.40000000000E+01  0.51109989000E-03 0. -1.
     -623   -1    0    0    0    0  0.00000000000E+00  0.00000000000E+00  0.12525980253E-10  0.17130000000E+03  0.17130000000E+03 0.  1.
       11    1    1    2    0    0 -0.10307993740E-02  0.25487885881E-03  0.24619684236E-01  0.24647871826E-01  0.51109989000E-03 0.  1.
     -623    1    1    2    0    0 -0.45409563456E-04  0.18602902870E-03  0.46436835035E-04  0.17130000000E+03  0.17130000000E+03 0.  1.
      622    1    1    2    0    0  0.10762089374E-02 -0.44090788753E-03  0.39753338467E+01  0.39753521284E+01  0.12000000000E-01 0. -1.
</event>
<event>
 5   0  0.3564000E+09  0.9118800E+02  0.7818608E-02  0.1180000E+00
       11   -1    0    0    0    0  0.00000000000E+00  0.00000000000E+00  0.39999999673E+01  0.40000000000E+01  0.51109989000E-03 0.  1.
     -623   -1    0    0    0    0  0.00000000000E+00  0.00000000000E+00  0.12525980253E-10  0.17130000000E+03  0.17130000000E+03 0.  1.
       11    1    1    2    0    0  0.89110351032E-03  0.27853616344E-02  0.54531326177E-01  0.54612077965E-01  0.51109989000E-03 0. -1.
     -623    1    1    2    0    0  0.78259253992E-03  0.25926940929E-02  0.10301029062E-03  0.17130000002E+03  0.17130000000E+03 0.  1.
      622    1    1    2    0    0 -0.16736960502E-02 -0.53780557274E-02  0.39453656309E+01  0.39453879006E+01  0.12000000000E-01 0.  1.
</event>
<event>
 5   0  0.3564000E+09  0.9118800E+02  0.7818608E-02  0.1180000E+00
       11   -1    0    0    0    0  0.00000000000E+00  0.00000000000E+00  0.39999999673E+01  0.40000000000E+01  0.51109989000E-03 0.  1.
     -623   -1    0    0    0    0  0.00000000000E+00  0.00000000000E+00  0.12525980253E-10  0.17130000000E+03  0.17130000000E+03 0.  1.
       11    1    1    2    0    0 -0.10498898386E-02  0.28279755830E-02  0.22474900288E+00  0.22476982723E+00  0.51109989000E-03 0.  1.
     -623    1    1    2    0    0  0.23368578582E-02 -0.90712694066E-03  0.40589822545E-04  0.17130000002E+03  0.17130000000E+03 0.  1.
      622    1    1    2    0    0 -0.12869680196E-02 -0.19208486423E-02  0.37752103747E+01  0.37752301545E+01  0.12000000000E-01 0.  1.
</event>
<event>
 5   0  0.3564000E+09  0.9118800E+02  0.7818608E-02  0.1180000E+00
       11   -1    0    0    0    0  0.00000000000E+00  0.00000000000E+00  0.39999999673E+01  0.40000000000E+01  0.51109989000E-03 0. -1.
     -623   -1    0    0    0    0  0.00000000000E+00  0.00000000000E+00  0.12525980253E-10  0.17130000000E+03  0.17130000000E+03 0. -1.
       11    1    1    2    0    0  0.70002547070E-02 -0.79479772033E-03  0.10471498721E+01  0.10471736967E+01  0.51109989000E-03 0. -1.
     -623    1    1    2    0    0  0.62638789766E-03  0.88773274994E-03  0.58029682180E-04  0.17130000000E+03  0.17130000000E+03 0. -1.
      622    1    1    2    0    0 -0.76266426039E-02 -0.92935028660E-04  0.29527920613E+01  0.29528262956E+01  0.12000000000E-01 0.  0.
</event>
<event>
 5   0  0.3564000E+09  0.9118800E+02  0.7818608E-02  0.1180000E+00
       11   -1    0    0    0    0  0.00000000000E+00  0.00000000000E+00  0.39999999673E+01  0.40000000000E+01  0.51109989000E-03 0. -1.
     -623   -1    0    0    0    0  0.00000000000E+00  0.00000000000E+00  0.12525980253E-10  0.17130000000E+03  0.17130000000E+03 0.  1.
       11    1    1    2    0    0  0.12043629416E-02  0.13180762689E-02  0.10841281064E+01  0.10841296970E+01  0.51109989000E-03 0. -1.
     -623    1    1    2    0    0  0.14101781983E-02 -0.27183959940E-02  0.27786426631E-04  0.17130000003E+03  0.17130000000E+03 0.  1.
      622    1    1    2    0    0 -0.26145411399E-02  0.14003197251E-02  0.29158440746E+01  0.29158702756E+01  0.12000000000E-01 0. -1.
</event>
<event>
 5   0  0.3564000E+09  0.9118800E+02  0.7818608E-02  0.1180000E+00
       11   -1    0    0    0    0  0.00000000000E+00  0.00000000000E+00  0.39999999673E+01  0.40000000000E+01  0.51109989000E-03 0.  1.
     -623   -1    0    0    0    0  0.00000000000E+00  0.00000000000E+00  0.12525980253E-10  0.17130000000E+03  0.17130000000E+03 0.  1.
       11    1    1    2    0    0 -0.64473791885E-03 -0.28604681295E-03  0.27012271699E-01  0.27026312275E-01  0.51109989000E-03 0.  1.
     -623    1    1    2    0    0  0.50993761665E-03  0.62815881899E-03  0.32149353509E-04  0.17130000000E+03  0.17130000000E+03 0.  1.
      622    1    1    2    0    0  0.13480030217E-03 -0.34211200608E-03  0.39729555466E+01  0.39729736861E+01  0.12000000000E-01 0.  1.
</event>
<event>
 5   0  0.3564000E+09  0.9118800E+02  0.7818608E-02  0.1180000E+00
       11   -1    0    0    0    0  0.00000000000E+00  0.00000000000E+00  0.39999999673E+01  0.40000000000E+01  0.51109989000E-03 0. -1.
     -623   -1    0    0    0    0  0.00000000000E+00  0.00000000000E+00  0.12525980253E-10  0.17130000000E+03  0.17130000000E+03 0. -1.
       11    1    1    2    0    0 -0.26119721869E-02  0.35907932741E-02  0.61444969612E+00  0.61446595225E+00  0.51109989000E-03 0. -1.
     -623    1    1    2    0    0 -0.47164152274E-03  0.17927974490E-02  0.43185325991E-04  0.17130000001E+03  0.17130000000E+03 0. -1.
      622    1    1    2    0    0  0.30836137097E-02 -0.53835907231E-02  0.33855070859E+01  0.33855340377E+01  0.12000000000E-01 0.  0.
</event>
<event>
 5   0  0.3564000E+09  0.9118800E+02  0.7818608E-02  0.1180000E+00
       11   -1    0    0    0    0  0.00000000000E+00  0.00000000000E+00  0.39999999673E+01  0.40000000000E+01  0.51109989000E-03 0.  1.
     -623   -1    0    0    0    0  0.00000000000E+00  0.00000000000E+00  0.12525980253E-10  0.17130000000E+03  0.17130000000E+03 0.  1.
       11    1    1    2    0    0 -0.68123418515E-03 -0.21329983842E-02  0.42000087606E-01  0.42062838041E-01  0.51109989000E-03 0.  1.
     -623    1    1    2    0    0  0.20455585799E-02  0.55814498708E-04  0.81701591354E-04  0.17130000001E+03  0.17130000000E+03 0.  1.
      622    1    1    2    0    0 -0.13643243937E-02  0.20771838855E-02  0.39579181760E+01  0.39579371476E+01  0.12000000000E-01 0.  1.
</event>
<event>
 5   0  0.3564000E+09  0.9118800E+02  0.7818608E-02  0.1180000E+00
       11   -1    0    0    0    0  0.00000000000E+00  0.00000000000E+00  0.39999999673E+01  0.40000000000E+01  0.51109989000E-03 0.  1.
     -623   -1    0    0    0    0  0.00000000000E+00  0.00000000000E+00  0.12525980253E-10  0.17130000000E+03  0.17130000000E+03 0. -1.
       11    1    1    2    0    0 -0.15877520517E-02 -0.39669765541E-02  0.59799898450E+00  0.59801446851E+00  0.51109989000E-03 0.  1.
     -623    1    1    2    0    0 -0.13737750647E-02  0.61079485722E-03  0.39566711675E-04  0.17130000001E+03  0.17130000000E+03 0. -1.
      622    1    1    2    0    0  0.29615271164E-02  0.33561816969E-02  0.34019614161E+01  0.34019855249E+01  0.12000000000E-01 0.  1.
</event>
<event>
 5   0  0.3564000E+09  0.9118800E+02  0.7818608E-02  0.1180000E+00
       11   -1    0    0    0    0  0.00000000000E+00  0.00000000000E+00  0.39999999673E+01  0.40000000000E+01  0.51109989000E-03 0.  1.
     -623   -1    0    0    0    0  0.00000000000E+00  0.00000000000E+00  0.12525980253E-10  0.17130000000E+03  0.17130000000E+03 0.  1.
       11    1    1    2    0    0 -0.90891897689E-04 -0.20361147618E-02  0.48703054929E+00  0.48703508210E+00  0.51109989000E-03 0.  1.
     -623    1    1    2    0    0 -0.55430857894E-03 -0.27042595235E-03  0.25813310096E-04  0.17130000000E+03  0.17130000000E+03 0.  1.
      622    1    1    2    0    0  0.64520047663E-03  0.23065407141E-02  0.35129436048E+01  0.35129649168E+01  0.12000000000E-01 0.  1.
</event>
<event>
 5   0  0.3564000E+09  0.9118800E+02  0.7818608E-02  0.1180000E+00
       11   -1    0    0    0    0  0.00000000000E+00  0.00000000000E+00  0.39999999673E+01  0.40000000000E+01  0.51109989000E-03 0.  1.
     -623   -1    0    0    0    0  0.00000000000E+00  0.00000000000E+00  0.12525980253E-10  0.17130000000E+03  0.17130000000E+03 0. -1.
       11    1    1    2    0    0 -0.43326382758E-03 -0.28718051033E-04  0.25425379186E-02  0.26294988944E-02  0.51109989000E-03 0.  1.
     -623    1    1    2    0    0  0.44917434031E-03  0.82726976573E-04  0.10494125441E-03  0.17130000000E+03  0.17130000000E+03 0. -1.
      622    1    1    2    0    0 -0.15910512627E-04 -0.54008925521E-04  0.39973524873E+01  0.39973704996E+01  0.12000000000E-01 0.  1.
</event>
<event>
 5   0  0.3564000E+09  0.9118800E+02  0.7818608E-02  0.1180000E+00
       11   -1    0    0    0    0  0.00000000000E+00  0.00000000000E+00  0.39999999673E+01  0.40000000000E+01  0.51109989000E-03 0.  1.
     -623   -1    0    0    0    0  0.00000000000E+00  0.00000000000E+00  0.12525980253E-10  0.17130000000E+03  0.17130000000E+03 0.  1.
       11    1    1    2    0    0 -0.23701860033E-02 -0.11198146362E-02  0.24286347581E+00  0.24287816054E+00  0.51109989000E-03 0.  1.
     -623    1    1    2    0    0  0.44967182578E-03  0.51481665285E-03  0.34356682779E-04  0.17130000000E+03  0.17130000000E+03 0.  1.
      622    1    1    2    0    0  0.19205141775E-02  0.60499798340E-03  0.37571021349E+01  0.37571218381E+01  0.12000000000E-01 0.  0.
</event>
<event>
 5   0  0.3564000E+09  0.9118800E+02  0.7818608E-02  0.1180000E+00
       11   -1    0    0    0    0  0.00000000000E+00  0.00000000000E+00  0.39999999673E+01  0.40000000000E+01  0.51109989000E-03 0. -1.
     -623   -1    0    0    0    0  0.00000000000E+00  0.00000000000E+00  0.12525980253E-10  0.17130000000E+03  0.17130000000E+03 0. -1.
       11    1    1    2    0    0  0.95010370120E-03  0.53931064396E-03  0.81054431401E-01  0.81063404970E-01  0.51109989000E-03 0. -1.
     -623    1    1    2    0    0 -0.61708463531E-03  0.87970103329E-04  0.27378790877E-04  0.17130000000E+03  0.17130000000E+03 0. -1.
      622    1    1    2    0    0 -0.33301906589E-03 -0.62728074729E-03  0.39189181572E+01  0.39189365939E+01  0.12000000000E-01 0. -1.
</event>
<event>
 5   0  0.3564000E+09  0.9118800E+02  0.7818608E-02  0.1180000E+00
       11   -1    0    0    0    0  0.00000000000E+00  0.00000000000E+00  0.39999999673E+01  0.40000000000E+01  0.51109989000E-03 0. -1.
     -623   -1    0    0    0    0  0.00000000000E+00  0.00000000000E+00  0.12525980253E-10  0.17130000000E+03  0.17130000000E+03 0. -1.
       11    1    1    2    0    0 -0.18582424603E-02  0.15976804280E-02  0.23363865108E+00  0.23365206216E+00  0.51109989000E-03 0. -1.
     -623    1    1    2    0    0 -0.40100668407E-04 -0.42487319396E-04  0.33294655175E-04  0.17130000000E+03  0.17130000000E+03 0. -1.
      622    1    1    2    0    0  0.18983431286E-02 -0.15551931087E-02  0.37663280147E+01  0.37663479309E+01  0.12000000000E-01 0. -1.
</event>
<event>
 5   0  0.3564000E+09  0.9118800E+02  0.7818608E-02  0.1180000E+00
       11   -1    0    0    0    0  0.00000000000E+00  0.00000000000E+00  0.39999999673E+01  0.40000000000E+01  0.51109989000E-03 0. -1.
     -623   -1    0    0    0    0  0.00000000000E+00  0.00000000000E+00  0.12525980253E-10  0.17130000000E+03  0.17130000000E+03 0. -1.
       11    1    1    2    0    0 -0.29494286122E-03 -0.15184286258E-03  0.12139794046E-01  0.12155075900E-01  0.51109989000E-03 0. -1.
     -623    1    1    2    0    0  0.45155453047E-04 -0.39390928825E-04  0.33316540968E-04  0.17130000000E+03  0.17130000000E+03 0. -1.
      622    1    1    2    0    0  0.24978740829E-03  0.19123379131E-03  0.39878268466E+01  0.39878449139E+01  0.12000000000E-01 0. -1.
</event>
<event>
 5   0  0.3564000E+09  0.9118800E+02  0.7818608E-02  0.1180000E+00
       11   -1    0    0    0    0  0.00000000000E+00  0.00000000000E+00  0.39999999673E+01  0.40000000000E+01  0.51109989000E-03 0.  1.
     -623   -1    0    0    0    0  0.00000000000E+00  0.00000000000E+00  0.12525980253E-10  0.17130000000E+03  0.17130000000E+03 0.  1.
       11    1    1    2    0    0  0.40162770480E-02 -0.20590273176E-02  0.65874654376E-01  0.66031063785E-01  0.51109989000E-03 0.  1.
     -623    1    1    2    0    0  0.41686681519E-03  0.22913850890E-02  0.17719956726E-03  0.17130000002E+03  0.17130000000E+03 0.  1.
      622    1    1    2    0    0 -0.44331438632E-02 -0.23235777144E-03  0.39339481134E+01  0.39339689203E+01  0.12000000000E-01 0.  1.
</event>
<event>
 5   0  0.3564000E+09  0.9118800E+02  0.7818608E-02  0.1180000E+00
       11   -1    0    0    0    0  0.00000000000E+00  0.00000000000E+00  0.39999999673E+01  0.40000000000E+01  0.51109989000E-03 0. -1.
     -623   -1    0    0    0    0  0.00000000000E+00  0.00000000000E+00  0.12525980253E-10  0.17130000000E+03  0.17130000000E+03 0.  1.
       11    1    1    2    0    0 -0.25710517712E-02 -0.70401339895E-03  0.69708121242E-01  0.69760944164E-01  0.51109989000E-03 0. -1.
     -623    1    1    2    0    0  0.40882092995E-03 -0.68610773952E-04  0.71781061335E-04  0.17130000000E+03  0.17130000000E+03 0.  1.
      622    1    1    2    0    0  0.21622308413E-02  0.77262417290E-03  0.39302200651E+01  0.39302390553E+01  0.12000000000E-01 0.  0.
</event>
<event>
 5   0  0.3564000E+09  0.9118800E+02  0.7818608E-02  0.1180000E+00
       11   -1    0    0    0    0  0.00000000000E+00  0.00000000000E+00  0.39999999673E+01  0.40000000000E+01  0.51109989000E-03 0.  1.
     -623   -1    0    0    0    0  0.00000000000E+00  0.00000000000E+00  0.12525980253E-10  0.17130000000E+03  0.17130000000E+03 0. -1.
       11    1    1    2    0    0 -0.97300314953E-02 -0.22424152728E-02  0.34805899350E+00  0.34820256478E+00  0.51109989000E-03 0.  1.
     -623    1    1    2    0    0  0.30702316101E-02 -0.25056523412E-02  0.17246046657E-03  0.17130000005E+03  0.17130000000E+03 0. -1.
      622    1    1    2    0    0  0.66597998852E-02  0.47480676140E-02  0.36517685134E+01  0.36517973893E+01  0.12000000000E-01 0.  1.
</event>
<event>
 5   0  0.3564000E+09  0.9118800E+02  0.7818608E-02  0.1180000E+00
       11   -1    0    0    0    0  0.00000000000E+00  0.00000000000E+00  0.39999999673E+01  0.40000000000E+01  0.51109989000E-03 0.  1.
     -623   -1    0    0    0    0  0.00000000000E+00  0.00000000000E+00  0.12525980253E-10  0.17130000000E+03  0.17130000000E+03 0. -1.
       11    1    1    2    0    0  0.14962246882E-02  0.85427229348E-02  0.38380421893E+00  0.38390253515E+00  0.51109989000E-03 0.  1.
     -623    1    1    2    0    0  0.15060958709E-04  0.36466383318E-03  0.12948152904E-03  0.17130000000E+03  0.17130000000E+03 0. -1.
      622    1    1    2    0    0 -0.15112856469E-02 -0.89073867680E-02  0.36160662669E+01  0.36160974644E+01  0.12000000000E-01 0.  0.
</event>
<event>
 5   0  0.3564000E+09  0.9118800E+02  0.7818608E-02  0.1180000E+00
       11   -1    0    0    0    0  0.00000000000E+00  0.00000000000E+00  0.39999999673E+01  0.40000000000E+01  0.51109989000E-03 0.  1.
     -623   -1    0    0    0    0  0.00000000000E+00  0.00000000000E+00  0.12525980253E-10  0.17130000000E+03  0.17130000000E+03 0. -1.
       11    1    1    2    0    0  0.33106557122E-02  0.78227994963E-03  0.52674261147E-01  0.52786469986E-01  0.51109989000E-03 0.  1.
     -623    1    1    2    0    0  0.17983460660E-03 -0.41185859621E-03  0.13197829275E-03  0.17130000000E+03  0.17130000000E+03 0. -1.
      622    1    1    2    0    0 -0.34904903189E-02 -0.37042135307E-03  0.39471937313E+01  0.39472135327E+01  0.12000000000E-01 0.  1.
</event>
<event>
 5   0  0.3564000E+09  0.9118800E+02  0.7818608E-02  0.1180000E+00
       11   -1    0    0    0    0  0.00000000000E+00  0.00000000000E+00  0.39999999673E+01  0.40000000000E+01  0.51109989000E-03 0.  1.
     -623   -1    0    0    0    0  0.00000000000E+00  0.00000000000E+00  0.12525980253E-10  0.17130000000E+03  0.17130000000E+03 0. -1.
       11    1    1    2    0    0 -0.52661139591E-02 -0.11464538778E-02  0.52447906315E+00  0.52450700207E+00  0.51109989000E-03 0.  1.
     -623    1    1    2    0    0 -0.23270008041E-03 -0.46654021620E-03  0.53347979270E-04  0.17130000000E+03  0.17130000000E+03 0. -1.
      622    1    1    2    0    0  0.54988140395E-02  0.16129940940E-02  0.34754675562E+01  0.34754929971E+01  0.12000000000E-01 0.  0.
</event>
<event>
 5   0  0.3564000E+09  0.9118800E+02  0.7818608E-02  0.1180000E+00
       11   -1    0    0    0    0  0.00000000000E+00  0.00000000000E+00  0.39999999673E+01  0.40000000000E+01  0.51109989000E-03 0.  1.
     -623   -1    0    0    0    0  0.00000000000E+00  0.00000000000E+00  0.12525980253E-10  0.17130000000E+03  0.17130000000E+03 0.  1.
       11    1    1    2    0    0  0.28386673038E-03  0.67710898627E-03  0.12569417757E-01  0.12601211955E-01  0.51109989000E-03 0. -1.
     -623    1    1    2    0    0 -0.14230356468E-03  0.10420081826E-02  0.50194822213E-04  0.17130000000E+03  0.17130000000E+03 0.  1.
      622    1    1    2    0    0 -0.14156316568E-03 -0.17191171691E-02  0.39873803554E+01  0.39873987855E+01  0.12000000000E-01 0.  1.
</event>
<event>
 5   0  0.3564000E+09  0.9118800E+02  0.7818608E-02  0.1180000E+00
       11   -1    0    0    0    0  0.00000000000E+00  0.00000000000E+00  0.39999999673E+01  0.40000000000E+01  0.51109989000E-03 0.  1.
     -623   -1    0    0    0    0  0.00000000000E+00  0.00000000000E+00  0.12525980253E-10  0.17130000000E+03  0.17130000000E+03 0. -1.
       11    1    1    2    0    0  0.16971818917E-02 -0.22193548226E-02  0.34247598512E+00  0.34248776266E+00  0.51109989000E-03 0.  1.
     -623    1    1    2    0    0  0.72157386410E-04  0.30171740295E-02  0.31972031283E-04  0.17130000003E+03  0.17130000000E+03 0. -1.
      622    1    1    2    0    0 -0.17693392780E-02 -0.79781920394E-03  0.36574920063E+01  0.36575122069E+01  0.12000000000E-01 0.  1.
</event>
<event>
 5   0  0.3564000E+09  0.9118800E+02  0.7818608E-02  0.1180000E+00
       11   -1    0    0    0    0  0.00000000000E+00  0.00000000000E+00  0.39999999673E+01  0.40000000000E+01  0.51109989000E-03 0. -1.
     -623   -1    0    0    0    0  0.00000000000E+00  0.00000000000E+00  0.12525980253E-10  0.17130000000E+03  0.17130000000E+03 0.  1.
       11    1    1    2    0    0  0.11445246092E-02  0.88622459303E-03  0.55111240212E-01  0.55132616040E-01  0.51109989000E-03 0. -1.
     -623    1    1    2    0    0  0.53143389171E-04 -0.78407396482E-04  0.39859344185E-04  0.17130000000E+03  0.17130000000E+03 0.  1.
      622    1    1    2    0    0 -0.11976679985E-02 -0.80781719636E-03  0.39448488772E+01  0.39448673933E+01  0.12000000000E-01 0. -1.
</event>
<event>
 5   0  0.3564000E+09  0.9118800E+02  0.7818608E-02  0.1180000E+00
       11   -1    0    0    0    0  0.00000000000E+00  0.00000000000E+00  0.39999999673E+01  0.40000000000E+01  0.51109989000E-03 0. -1.
     -623   -1    0    0    0    0  0.00000000000E+00  0.00000000000E+00  0.12525980253E-10  0.17130000000E+03  0.17130000000E+03 0. -1.
       11    1    1    2    0    0  0.16250036675E-03  0.97398522073E-03  0.13117871214E-01  0.13164908729E-01  0.51109989000E-03 0. -1.
     -623    1    1    2    0    0 -0.12201675960E-02  0.39081797910E-03  0.65443058951E-04  0.17130000000E+03  0.17130000000E+03 0. -1.
      622    1    1    2    0    0  0.10576672306E-02 -0.13648032002E-02  0.39868166574E+01  0.39868350907E+01  0.12000000000E-01 0. -1.
</event>
<event>
 5   0  0.3564000E+09  0.9118800E+02  0.7818608E-02  0.1180000E+00
       11   -1    0    0    0    0  0.00000000000E+00  0.00000000000E+00  0.39999999673E+01  0.40000000000E+01  0.51109989000E-03 0. -1.
     -623   -1    0    0    0    0  0.00000000000E+00  0.00000000000E+00  0.12525980253E-10  0.17130000000E+03  0.17130000000E+03 0.  1.
       11    1    1    2    0    0  0.36738773524E-02  0.17946013820E-02  0.24121530077E+00  0.24125049331E+00  0.51109989000E-03 0. -1.
     -623    1    1    2    0    0 -0.38075397066E-02  0.41165839598E-02  0.59057542200E-04  0.17130000009E+03  0.17130000000E+03 0.  1.
      622    1    1    2    0    0  0.13366235793E-03 -0.59111853459E-02  0.37587256130E+01  0.37587494189E+01  0.12000000000E-01 0. -1.
</event>
<event>
 5   0  0.3564000E+09  0.9118800E+02  0.7818608E-02  0.1180000E+00
       11   -1    0    0    0    0  0.00000000000E+00  0.00000000000E+00  0.39999999673E+01  0.40000000000E+01  0.51109989000E-03 0. -1.
     -623   -1    0    0    0    0  0.00000000000E+00  0.00000000000E+00  0.12525980253E-10  0.17130000000E+03  0.17130000000E+03 0. -1.
       11    1    1    2    0    0  0.66078325908E-03 -0.62503472434E-03  0.10345436818E+01  0.10345442079E+01  0.51109989000E-03 0. -1.
     -623    1    1    2    0    0 -0.26244653574E-02 -0.53947237937E-02  0.31638338514E-04  0.17130000011E+03  0.17130000000E+03 0. -1.
      622    1    1    2    0    0  0.19636821003E-02  0.60197585221E-02  0.29654246502E+01  0.29654556900E+01  0.12000000000E-01 0.  0.
</event>
<event>
 5   0  0.3564000E+09  0.9118800E+02  0.7818608E-02  0.1180000E+00
       11   -1    0    0    0    0  0.00000000000E+00  0.00000000000E+00  0.39999999673E+01  0.40000000000E+01  0.51109989000E-03 0.  1.
     -623   -1    0    0    0    0  0.00000000000E+00  0.00000000000E+00  0.12525980253E-10  0.17130000000E+03  0.17130000000E+03 0.  1.
       11    1    1    2    0    0  0.16047737159E-02  0.26497682400E-02  0.94615104467E-01  0.94667184319E-01  0.51109989000E-03 0.  1.
     -623    1    1    2    0    0 -0.15339799277E-04 -0.22931283258E-03  0.71557278070E-04  0.17130000000E+03  0.17130000000E+03 0.  1.
      622    1    1    2    0    0 -0.15894339166E-02 -0.24204554076E-02  0.39053133013E+01  0.39053328112E+01  0.12000000000E-01 0.  0.
</event>
<event>
 5   0  0.3564000E+09  0.9118800E+02  0.7818608E-02  0.1180000E+00
       11   -1    0    0    0    0  0.00000000000E+00  0.00000000000E+00  0.39999999673E+01  0.40000000000E+01  0.51109989000E-03 0. -1.
     -623   -1    0    0    0    0  0.00000000000E+00  0.00000000000E+00  0.12525980253E-10  0.17130000000E+03  0.17130000000E+03 0.  1.
       11    1    1    2    0    0  0.91572095458E-03  0.12550925163E-03  0.12923296528E+00  0.12923728113E+00  0.51109989000E-03 0. -1.
     -623    1    1    2    0    0 -0.50800012601E-04  0.11354389628E-03  0.22988304940E-04  0.17130000000E+03  0.17130000000E+03 0.  1.
      622    1    1    2    0    0 -0.86492094198E-03 -0.23905314791E-03  0.38707440138E+01  0.38707627188E+01  0.12000000000E-01 0. -1.
</event>
<event>
 5   0  0.3564000E+09  0.9118800E+02  0.7818608E-02  0.1180000E+00
       11   -1    0    0    0    0  0.00000000000E+00  0.00000000000E+00  0.39999999673E+01  0.40000000000E+01  0.51109989000E-03 0.  1.
     -623   -1    0    0    0    0  0.00000000000E+00  0.00000000000E+00  0.12525980253E-10  0.17130000000E+03  0.17130000000E+03 0. -1.
       11    1    1    2    0    0  0.23721310765E-03 -0.67489788831E-03  0.51993735910E-01  0.52001168755E-01  0.51109989000E-03 0.  1.
     -623    1    1    2    0    0 -0.36790725242E-03 -0.78577541062E-04  0.25711813893E-04  0.17130000000E+03  0.17130000000E+03 0. -1.
      622    1    1    2    0    0  0.13069414477E-03  0.75347542937E-03  0.39479805196E+01  0.39479988308E+01  0.12000000000E-01 0.  1.
</event>
<event>
 5   0  0.3564000E+09  0.9118800E+02  0.7818608E-02  0.1180000E+00
       11   -1    0    0    0    0  0.00000000000E+00  0.00000000000E+00  0.39999999673E+01  0.40000000000E+01  0.51109989000E-03 0. -1.
     -623   -1    0    0    0    0  0.00000000000E+00  0.00000000000E+00  0.12525980253E-10  0.17130000000E+03  0.17130000000E+03 0. -1.
       11    1    1    2    0    0 -0.88492301655E-03  0.83906865120E-03  0.20056424996E-01  0.20099963475E-01  0.51109989000E-03 0. -1.
     -623    1    1    2    0    0  0.11227536558E-02 -0.16531680306E-02  0.61698823177E-04  0.17130000001E+03  0.17130000000E+03 0. -1.
      622    1    1    2    0    0 -0.23783064036E-03  0.81409938098E-03  0.39798818473E+01  0.39799000287E+01  0.12000000000E-01 0. -1.
</event>
<event>
 5   0  0.3564000E+09  0.9118800E+02  0.7818608E-02  0.1180000E+00
       11   -1    0    0    0    0  0.00000000000E+00  0.00000000000E+00  0.39999999673E+01  0.40000000000E+01  0.51109989000E-03 0. -1.
     -623   -1    0    0    0    0  0.00000000000E+00  0.00000000000E+00  0.12525980253E-10  0.17130000000E+03  0.17130000000E+03 0.  1.
       11    1    1    2    0    0 -0.39755135064E-02  0.36230768480E-02  0.19638248950E+00  0.19645680135E+00  0.51109989000E-03 0. -1.
     -623    1    1    2    0    0  0.59461485367E-02  0.47602161317E-03  0.96032192818E-04  0.17130000010E+03  0.17130000000E+03 0.  1.
      622    1    1    2    0    0 -0.19706350300E-02 -0.40990984611E-02  0.38035214455E+01  0.38035430946E+01  0.12000000000E-01 0. -1.
</event>
<event>
 5   0  0.3564000E+09  0.9118800E+02  0.7818608E-02  0.1180000E+00
       11   -1    0    0    0    0  0.00000000000E+00  0.00000000000E+00  0.39999999673E+01  0.40000000000E+01  0.51109989000E-03 0.  1.
     -623   -1    0    0    0    0  0.00000000000E+00  0.00000000000E+00  0.12525980253E-10  0.17130000000E+03  0.17130000000E+03 0. -1.
       11    1    1    2    0    0 -0.24632334549E-02  0.27464907724E-02  0.26752103784E+00  0.26754696343E+00  0.51109989000E-03 0.  1.
     -623    1    1    2    0    0 -0.18426606226E-03 -0.20066940835E-02  0.46207402492E-04  0.17130000001E+03  0.17130000000E+03 0. -1.
      622    1    1    2    0    0  0.26474995171E-02 -0.73979668893E-03  0.37324327221E+01  0.37324530247E+01  0.12000000000E-01 0.  1.
</event>
<event>
 5   0  0.3564000E+09  0.9118800E+02  0.7818608E-02  0.1180000E+00
       11   -1    0    0    0    0  0.00000000000E+00  0.00000000000E+00  0.39999999673E+01  0.40000000000E+01  0.51109989000E-03 0. -1.
     -623   -1    0    0    0    0  0.00000000000E+00  0.00000000000E+00  0.12525980253E-10  0.17130000000E+03  0.17130000000E+03 0. -1.
       11    1    1    2    0    0 -0.20951276104E-02  0.87721423611E-04  0.54093504983E-02  0.58240493356E-02  0.51109989000E-03 0. -1.
     -623    1    1    2    0    0 -0.58566817406E-04 -0.28339538454E-03  0.43327871766E-03  0.17130000000E+03  0.17130000000E+03 0. -1.
      622    1    1    2    0    0  0.21536944278E-02  0.19567396099E-03  0.39941573390E+01  0.39941759507E+01  0.12000000000E-01 0. -1.
</event>
<event>
 5   0  0.3564000E+09  0.9118800E+02  0.7818608E-02  0.1180000E+00
       11   -1    0    0    0    0  0.00000000000E+00  0.00000000000E+00  0.39999999673E+01  0.40000000000E+01  0.51109989000E-03 0.  1.
     -623   -1    0    0    0    0  0.00000000000E+00  0.00000000000E+00  0.12525980253E-10  0.17130000000E+03  0.17130000000E+03 0.  1.
       11    1    1    2    0    0  0.11332125698E-02 -0.60974997837E-03  0.58571797220E-01  0.58588161078E-01  0.51109989000E-03 0. -1.
     -623    1    1    2    0    0  0.21492453410E-03 -0.48494830584E-03  0.34982235557E-04  0.17130000000E+03  0.17130000000E+03 0.  1.
      622    1    1    2    0    0 -0.13481371040E-02  0.10946982844E-02  0.39413931898E+01  0.39414118400E+01  0.12000000000E-01 0.  1.
</event>
<event>
 5   0  0.3564000E+09  0.9118800E+02  0.7818608E-02  0.1180000E+00
       11   -1    0    0    0    0  0.00000000000E+00  0.00000000000E+00  0.39999999673E+01  0.40000000000E+01  0.51109989000E-03 0.  1.
     -623   -1    0    0    0    0  0.00000000000E+00  0.00000000000E+00  0.12525980253E-10  0.17130000000E+03  0.17130000000E+03 0.  1.
       11    1    1    2    0    0  0.40898741840E-04 -0.40034753842E-03  0.59582014613E-01  0.59585565684E-01  0.51109989000E-03 0.  1.
     -623    1    1    2    0    0 -0.22657541927E-03 -0.13219313894E-04  0.21816892494E-04  0.17130000000E+03  0.17130000000E+03 0.  1.
      622    1    1    2    0    0  0.18567667743E-03  0.41356685232E-03  0.39403961359E+01  0.39404144342E+01  0.12000000000E-01 0.  1.
</event>
<event>
 5   0  0.3564000E+09  0.9118800E+02  0.7818608E-02  0.1180000E+00
       11   -1    0    0    0    0  0.00000000000E+00  0.00000000000E+00  0.39999999673E+01  0.40000000000E+01  0.51109989000E-03 0.  1.
     -623   -1    0    0    0    0  0.00000000000E+00  0.00000000000E+00  0.12525980253E-10  0.17130000000E+03  0.17130000000E+03 0.  1.
       11    1    1    2    0    0 -0.16602182575E-02  0.25531119468E-04  0.66205735702E-02  0.68447200242E-02  0.51109989000E-03 0. -1.
     -623    1    1    2    0    0  0.13442266373E-02 -0.39766964586E-03  0.24218045944E-03  0.17130000001E+03  0.17130000000E+03 0.  1.
      622    1    1    2    0    0  0.31599162017E-03  0.37213852639E-03  0.39931372133E+01  0.39931552741E+01  0.12000000000E-01 0.  1.
</event>
<event>
 5   0  0.3564000E+09  0.9118800E+02  0.7818608E-02  0.1180000E+00
       11   -1    0    0    0    0  0.00000000000E+00  0.00000000000E+00  0.39999999673E+01  0.40000000000E+01  0.51109989000E-03 0.  1.
     -623   -1    0    0    0    0  0.00000000000E+00  0.00000000000E+00  0.12525980253E-10  0.17130000000E+03  0.17130000000E+03 0. -1.
       11    1    1    2    0    0  0.10765279388E-03  0.20401529241E-03  0.25185713230E-01  0.25191954775E-01  0.51109989000E-03 0.  1.
     -623    1    1    2    0    0 -0.99884708641E-04 -0.40073289967E-04  0.24326452119E-04  0.17130000000E+03  0.17130000000E+03 0. -1.
      622    1    1    2    0    0 -0.77680853166E-05 -0.16394200248E-03  0.39747899246E+01  0.39748080421E+01  0.12000000000E-01 0.  1.
</event>
<event>
 5   0  0.3564000E+09  0.9118800E+02  0.7818608E-02  0.1180000E+00
       11   -1    0    0    0    0  0.00000000000E+00  0.00000000000E+00  0.39999999673E+01  0.40000000000E+01  0.51109989000E-03 0. -1.
     -623   -1    0    0    0    0  0.00000000000E+00  0.00000000000E+00  0.12525980253E-10  0.17130000000E+03  0.17130000000E+03 0.  1.
       11    1    1    2    0    0  0.13846617181E-01 -0.23668632142E-01  0.57344101916E+00  0.57409650463E+00  0.51109989000E-03 0. -1.
     -623    1    1    2    0    0 -0.34157592749E-02  0.39030864733E-02  0.74944813675E-03  0.17130000008E+03  0.17130000000E+03 0.  1.
      622    1    1    2    0    0 -0.10430857906E-01  0.19765545668E-01  0.34258095001E+01  0.34259034152E+01  0.12000000000E-01 0.  0.
</event>
<event>
 5   0  0.3564000E+09  0.9118800E+02  0.7818608E-02  0.1180000E+00
       11   -1    0    0    0    0  0.00000000000E+00  0.00000000000E+00  0.39999999673E+01  0.40000000000E+01  0.51109989000E-03 0.  1.
     -623   -1    0    0    0    0  0.00000000000E+00  0.00000000000E+00  0.12525980253E-10  0.17130000000E+03  0.17130000000E+03 0.  1.
       11    1    1    2    0    0  0.17540271006E-02 -0.10801120183E-02  0.31329038235E-01  0.31400845735E-01  0.51109989000E-03 0.  1.
     -623    1    1    2    0    0 -0.18611117145E-03 -0.33840959482E-04  0.90383518701E-04  0.17130000000E+03  0.17130000000E+03 0.  1.
      622    1    1    2    0    0 -0.15679159291E-02  0.11139529777E-02  0.39685805472E+01  0.39685991557E+01  0.12000000000E-01 0.  1.
</event>
<event>
 5   0  0.3564000E+09  0.9118800E+02  0.7818608E-02  0.1180000E+00
       11   -1    0    0    0    0  0.00000000000E+00  0.00000000000E+00  0.39999999673E+01  0.40000000000E+01  0.51109989000E-03 0. -1.
     -623   -1    0    0    0    0  0.00000000000E+00  0.00000000000E+00  0.12525980253E-10  0.17130000000E+03  0.17130000000E+03 0.  1.
       11    1    1    2    0    0 -0.20905366579E-02  0.26250612852E-02  0.37839786479E-01  0.37991735306E-01  0.51109989000E-03 0. -1.
     -623    1    1    2    0    0  0.17078439238E-03  0.30184101875E-03  0.17163548717E-03  0.17130000000E+03  0.17130000000E+03 0.  1.
      622    1    1    2    0    0  0.19197522655E-02 -0.29269023040E-02  0.39619885454E+01  0.39620082643E+01  0.12000000000E-01 0. -1.
</event>
<event>
 5   0  0.3564000E+09  0.9118800E+02  0.7818608E-02  0.1180000E+00
       11   -1    0    0    0    0  0.00000000000E+00  0.00000000000E+00  0.39999999673E+01  0.40000000000E+01  0.51109989000E-03 0. -1.
     -623   -1    0    0    0    0  0.00000000000E+00  0.00000000000E+00  0.12525980253E-10  0.17130000000E+03  0.17130000000E+03 0.  1.
       11    1    1    2    0    0  0.12012113890E-01  0.10127200598E-01  0.79113133149E+00  0.79128749261E+00  0.51109989000E-03 0. -1.
     -623    1    1    2    0    0 -0.20360037695E-01 -0.10579385284E-02  0.20345713849E-03  0.17130000121E+03  0.17130000000E+03 0.  1.
      622    1    1    2    0    0  0.83479238050E-02 -0.90692620700E-02  0.32086651787E+01  0.32087112940E+01  0.12000000000E-01 0. -1.
</event>
<event>
 5   0  0.3564000E+09  0.9118800E+02  0.7818608E-02  0.1180000E+00
       11   -1    0    0    0    0  0.00000000000E+00  0.00000000000E+00  0.39999999673E+01  0.40000000000E+01  0.51109989000E-03 0. -1.
     -623   -1    0    0    0    0  0.00000000000E+00  0.00000000000E+00  0.12525980253E-10  0.17130000000E+03  0.17130000000E+03 0.  1.
       11    1    1    2    0    0  0.83195081217E-02  0.13792461072E-01  0.49918403829E+00  0.49944410248E+00  0.51109989000E-03 0. -1.
     -623    1    1    2    0    0 -0.15348606762E-01 -0.33560786027E-02  0.30393521001E-03  0.17130000072E+03  0.17130000000E+03 0.  1.
      622    1    1    2    0    0  0.70290986415E-02 -0.10436382469E-01  0.35005119941E+01  0.35005551770E+01  0.12000000000E-01 0. -1.
</event>
<event>
 5   0  0.3564000E+09  0.9118800E+02  0.7818608E-02  0.1180000E+00
       11   -1    0    0    0    0  0.00000000000E+00  0.00000000000E+00  0.39999999673E+01  0.40000000000E+01  0.51109989000E-03 0.  1.
     -623   -1    0    0    0    0  0.00000000000E+00  0.00000000000E+00  0.12525980253E-10  0.17130000000E+03  0.17130000000E+03 0. -1.
       11    1    1    2    0    0  0.28268463082E-02 -0.56516335240E-02  0.60567845350E+00  0.60571163294E+00  0.51109989000E-03 0.  1.
     -623    1    1    2    0    0  0.15107575932E-02  0.65631121757E-02  0.57385310644E-04  0.17130000013E+03  0.17130000000E+03 0. -1.
      622    1    1    2    0    0 -0.43376039014E-02 -0.91147865173E-03  0.33942641285E+01  0.33942882347E+01  0.12000000000E-01 0.  1.
</event>
<event>
 5   0  0.3564000E+09  0.9118800E+02  0.7818608E-02  0.1180000E+00
       11   -1    0    0    0    0  0.00000000000E+00  0.00000000000E+00  0.39999999673E+01  0.40000000000E+01  0.51109989000E-03 0.  1.
     -623   -1    0    0    0    0  0.00000000000E+00  0.00000000000E+00  0.12525980253E-10  0.17130000000E+03  0.17130000000E+03 0.  1.
       11    1    1    2    0    0  0.38110962295E-02  0.22076219424E-02  0.74739025690E+00  0.74740340873E+00  0.51109989000E-03 0.  1.
     -623    1    1    2    0    0 -0.15078659557E-02 -0.29978239267E-03  0.36637349468E-04  0.17130000001E+03  0.17130000000E+03 0.  1.
      622    1    1    2    0    0 -0.23032302738E-02 -0.19078395497E-02  0.32525730731E+01  0.32525965844E+01  0.12000000000E-01 0.  0.
</event>
<event>
 5   0  0.3564000E+09  0.9118800E+02  0.7818608E-02  0.1180000E+00
       11   -1    0    0    0    0  0.00000000000E+00  0.00000000000E+00  0.39999999673E+01  0.40000000000E+01  0.51109989000E-03 0.  1.
     -623   -1    0    0    0    0  0.00000000000E+00  0.00000000000E+00  0.12525980253E-10  0.17130000000E+03  0.17130000000E+03 0. -1.
       11    1    1    2    0    0 -0.20317357298E-02  0.36686153527E-02  0.76070639214E+00  0.76071812319E+00  0.51109989000E-03 0.  1.
     -623    1    1    2    0    0  0.11195082134E-01 -0.60577759282E-02  0.48240509773E-04  0.17130000047E+03  0.17130000000E+03 0. -1.
      622    1    1    2    0    0 -0.91633464040E-02  0.23891605755E-02  0.32392453347E+01  0.32392814039E+01  0.12000000000E-01 0.  1.
</event>
<event>
 5   0  0.3564000E+09  0.9118800E+02  0.7818608E-02  0.1180000E+00
       11   -1    0    0    0    0  0.00000000000E+00  0.00000000000E+00  0.39999999673E+01  0.40000000000E+01  0.51109989000E-03 0. -1.
     -623   -1    0    0    0    0  0.00000000000E+00  0.00000000000E+00  0.12525980253E-10  0.17130000000E+03  0.17130000000E+03 0. -1.
       11    1    1    2    0    0  0.76964815632E-02 -0.73321766228E-02  0.26833359019E+00  0.26854454657E+00  0.51109989000E-03 0. -1.
     -623    1    1    2    0    0 -0.87996334566E-02  0.17282300464E-02  0.23482523201E-03  0.17130000023E+03  0.17130000000E+03 0. -1.
      622    1    1    2    0    0  0.11031518912E-02  0.56039465769E-02  0.37314315509E+01  0.37314552175E+01  0.12000000000E-01 0. -1.
</event>
<event>
 5   0  0.3564000E+09  0.9118800E+02  0.7818608E-02  0.1180000E+00
       11   -1    0    0    0    0  0.00000000000E+00  0.00000000000E+00  0.39999999673E+01  0.40000000000E+01  0.51109989000E-03 0. -1.
     -623   -1    0    0    0    0  0.00000000000E+00  0.00000000000E+00  0.12525980253E-10  0.17130000000E+03  0.17130000000E+03 0. -1.
       11    1    1    2    0    0  0.48604812823E-03  0.31865981116E-02  0.26953366561E+00  0.26955342470E+00  0.51109989000E-03 0. -1.
     -623    1    1    2    0    0 -0.11791268671E-02 -0.46488881180E-03  0.40089097181E-04  0.17130000000E+03  0.17130000000E+03 0. -1.
      622    1    1    2    0    0  0.69307873997E-03 -0.27217092993E-02  0.37304262164E+01  0.37304465743E+01  0.12000000000E-01 0. -1.
</event>
<event>
 5   0  0.3564000E+09  0.9118800E+02  0.7818608E-02  0.1180000E+00
       11   -1    0    0    0    0  0.00000000000E+00  0.00000000000E+00  0.39999999673E+01  0.40000000000E+01  0.51109989000E-03 0.  1.
     -623   -1    0    0    0    0  0.00000000000E+00  0.00000000000E+00  0.12525980253E-10  0.17130000000E+03  0.17130000000E+03 0. -1.
       11    1    1    2    0    0 -0.28773729448E-03  0.93263091034E-03  0.27607662955E-01  0.27629637510E-01  0.51109989000E-03 0.  1.
     -623    1    1    2    0    0 -0.95002346013E-03 -0.65653392194E-03  0.40273486047E-04  0.17130000000E+03  0.17130000000E+03 0. -1.
      622    1    1    2    0    0  0.12377607546E-02 -0.27609698840E-03  0.39723520309E+01  0.39723703586E+01  0.12000000000E-01 0.  1.
</event>
<event>
 5   0  0.3564000E+09  0.9118800E+02  0.7818608E-02  0.1180000E+00
       11   -1    0    0    0    0  0.00000000000E+00  0.00000000000E+00  0.39999999673E+01  0.40000000000E+01  0.51109989000E-03 0. -1.
     -623   -1    0    0    0    0  0.00000000000E+00  0.00000000000E+00  0.12525980253E-10  0.17130000000E+03  0.17130000000E+03 0.  1.
       11    1    1    2    0    0  0.13995233014E-02 -0.25427013140E-03  0.16733664975E+00  0.16734347579E+00  0.51109989000E-03 0. -1.
     -623    1    1    2    0    0 -0.10863813904E-03 -0.12233406118E-03  0.25815348076E-04  0.17130000000E+03  0.17130000000E+03 0.  1.
      622    1    1    2    0    0 -0.12908851623E-02  0.37660419258E-03  0.38326375023E+01  0.38326565241E+01  0.12000000000E-01 0. -1.
</event>
<event>
 5   0  0.3564000E+09  0.9118800E+02  0.7818608E-02  0.1180000E+00
       11   -1    0    0    0    0  0.00000000000E+00  0.00000000000E+00  0.39999999673E+01  0.40000000000E+01  0.51109989000E-03 0.  1.
     -623   -1    0    0    0    0  0.00000000000E+00  0.00000000000E+00  0.12525980253E-10  0.17130000000E+03  0.17130000000E+03 0.  1.
       11    1    1    2    0    0  0.36214378468E-02  0.63617322502E-02  0.90037414078E+00  0.90040404322E+00  0.51109989000E-03 0.  1.
     -623    1    1    2    0    0 -0.68040250894E-05 -0.10502657449E-01  0.58294419831E-04  0.17130000032E+03  0.17130000000E+03 0.  1.
      622    1    1    2    0    0 -0.36146338217E-02  0.41409251986E-02  0.30995675322E+01  0.30995956348E+01  0.12000000000E-01 0.  1.
</event>
<event>
 5   0  0.3564000E+09  0.9118800E+02  0.7818608E-02  0.1180000E+00
       11   -1    0    0    0    0  0.00000000000E+00  0.00000000000E+00  0.39999999673E+01  0.40000000000E+01  0.51109989000E-03 0.  1.
     -623   -1    0    0    0    0  0.00000000000E+00  0.00000000000E+00  0.12525980253E-10  0.17130000000E+03  0.17130000000E+03 0.  1.
       11    1    1    2    0    0 -0.67823578372E-03 -0.27959256597E-03  0.16069661352E-01  0.16094515055E-01  0.51109989000E-03 0. -1.
     -623    1    1    2    0    0 -0.43492061733E-03  0.65033112870E-04  0.43055685219E-04  0.17130000000E+03  0.17130000000E+03 0.  1.
      622    1    1    2    0    0  0.11131564011E-02  0.21455945309E-03  0.39838872507E+01  0.39839054848E+01  0.12000000000E-01 0.  1.
</event>
<event>
 5   0  0.3564000E+09  0.9118800E+02  0.7818608E-02  0.1180000E+00
       11   -1    0    0    0    0  0.00000000000E+00  0.00000000000E+00  0.39999999673E+01  0.40000000000E+01  0.51109989000E-03 0. -1.
     -623   -1    0    0    0    0  0.00000000000E+00  0.00000000000E+00  0.12525980253E-10  0.17130000000E+03  0.17130000000E+03 0. -1.
       11    1    1    2    0    0 -0.37726281840E-02 -0.33645063300E-03  0.45058699312E+00  0.45060320185E+00  0.51109989000E-03 0. -1.
     -623    1    1    2    0    0  0.27472843890E-03 -0.10283056886E-03  0.38212305567E-04  0.17130000000E+03  0.17130000000E+03 0. -1.
      622    1    1    2    0    0  0.34978997457E-02  0.43928120162E-03  0.35493747528E+01  0.35493967888E+01  0.12000000000E-01 0. -1.
</event>
<event>
 5   0  0.3564000E+09  0.9118800E+02  0.7818608E-02  0.1180000E+00
       11   -1    0    0    0    0  0.00000000000E+00  0.00000000000E+00  0.39999999673E+01  0.40000000000E+01  0.51109989000E-03 0. -1.
     -623   -1    0    0    0    0  0.00000000000E+00  0.00000000000E+00  0.12525980253E-10  0.17130000000E+03  0.17130000000E+03 0.  1.
       11    1    1    2    0    0 -0.39510873905E-02  0.25563725106E-02  0.74876858459E+00  0.74878354724E+00  0.51109989000E-03 0. -1.
     -623    1    1    2    0    0  0.29288888359E-03  0.28411291723E-02  0.43637903421E-04  0.17130000002E+03  0.17130000000E+03 0.  1.
      622    1    1    2    0    0  0.36581985069E-02 -0.53975016828E-02  0.32511877449E+01  0.32512164289E+01  0.12000000000E-01 0. -1.
</event>
<event>
 5   0  0.3564000E+09  0.9118800E+02  0.7818608E-02  0.1180000E+00
       11   -1    0    0    0    0  0.00000000000E+00  0.00000000000E+00  0.39999999673E+01  0.40000000000E+01  0.51109989000E-03 0. -1.
     -623   -1    0    0    0    0  0.00000000000E+00  0.00000000000E+00  0.12525980253E-10  0.17130000000E+03  0.17130000000E+03 0. -1.
       11    1    1    2    0    0  0.22963052898E-02 -0.21925379774E-02  0.99931704766E+00  0.99932222191E+00  0.51109989000E-03 0. -1.
     -623    1    1    2    0    0  0.20487848242E-04 -0.41808935697E-04  0.30862558904E-04  0.17130000000E+03  0.17130000000E+03 0. -1.
      622    1    1    2    0    0 -0.23167931380E-02  0.22343469131E-02  0.30006520571E+01  0.30006777781E+01  0.12000000000E-01 0.  0.
</event>
<event>
 5   0  0.3564000E+09  0.9118800E+02  0.7818608E-02  0.1180000E+00
       11   -1    0    0    0    0  0.00000000000E+00  0.00000000000E+00  0.39999999673E+01  0.40000000000E+01  0.51109989000E-03 0.  1.
     -623   -1    0    0    0    0  0.00000000000E+00  0.00000000000E+00  0.12525980253E-10  0.17130000000E+03  0.17130000000E+03 0. -1.
       11    1    1    2    0    0  0.68208911130E-03  0.18486455444E-02  0.41030991460E-01  0.41081458338E-01  0.51109989000E-03 0. -1.
     -623    1    1    2    0    0  0.24812731009E-04  0.89136087397E-03  0.69634709236E-04  0.17130000000E+03  0.17130000000E+03 0. -1.
      622    1    1    2    0    0 -0.70690184231E-03 -0.27400064183E-02  0.39588993413E+01  0.39589185394E+01  0.12000000000E-01 0.  1.
</event>
<event>
 5   0  0.3564000E+09  0.9118800E+02  0.7818608E-02  0.1180000E+00
       11   -1    0    0    0    0  0.00000000000E+00  0.00000000000E+00  0.39999999673E+01  0.40000000000E+01  0.51109989000E-03 0.  1.
     -623   -1    0    0    0    0  0.00000000000E+00  0.00000000000E+00  0.12525980253E-10  0.17130000000E+03  0.17130000000E+03 0. -1.
       11    1    1    2    0    0 -0.36200540359E-02 -0.60693457362E-02  0.14712780606E+00  0.14729831733E+00  0.51109989000E-03 0.  1.
     -623    1    1    2    0    0 -0.19815723562E-02  0.22556979414E-03  0.19768278726E-03  0.17130000001E+03  0.17130000000E+03 0. -1.
      622    1    1    2    0    0  0.56016263928E-02  0.58437759419E-02  0.38526744800E+01  0.38527016724E+01  0.12000000000E-01 0.  1.
</event>
<event>
 5   0  0.3564000E+09  0.9118800E+02  0.7818608E-02  0.1180000E+00
       11   -1    0    0    0    0  0.00000000000E+00  0.00000000000E+00  0.39999999673E+01  0.40000000000E+01  0.51109989000E-03 0. -1.
     -623   -1    0    0    0    0  0.00000000000E+00  0.00000000000E+00  0.12525980253E-10  0.17130000000E+03  0.17130000000E+03 0.  1.
       11    1    1    2    0    0  0.37259404063E-03 -0.27851971783E-03  0.86319082595E-01  0.86321849162E-01  0.51109989000E-03 0. -1.
     -623    1    1    2    0    0  0.96501493014E-04  0.30640500303E-04  0.21166980285E-04  0.17130000000E+03  0.17130000000E+03 0.  1.
      622    1    1    2    0    0 -0.46909553358E-03  0.24787921755E-03  0.39136597148E+01  0.39136781479E+01  0.12000000000E-01 0. -1.
</event>
<event>
 5   0  0.3564000E+09  0.9118800E+02  0.7818608E-02  0.1180000E+00
       11   -1    0    0    0    0  0.00000000000E+00  0.00000000000E+00  0.39999999673E+01  0.40000000000E+01  0.51109989000E-03 0.  1.
     -623   -1    0    0    0    0  0.00000000000E+00  0.00000000000E+00  0.12525980253E-10  0.17130000000E+03  0.17130000000E+03 0. -1.
       11    1    1    2    0    0 -0.61054903331E-02  0.27980450084E-02  0.16143486660E+00  0.16157531817E+00  0.51109989000E-03 0.  1.
     -623    1    1    2    0    0 -0.31488194545E-03 -0.96550465795E-03  0.16498678599E-03  0.17130000000E+03  0.17130000000E+03 0. -1.
      622    1    1    2    0    0  0.64203722786E-02 -0.18325403505E-02  0.38384001140E+01  0.38384246787E+01  0.12000000000E-01 0.  1.
</event>
<event>
 5   0  0.3564000E+09  0.9118800E+02  0.7818608E-02  0.1180000E+00
       11   -1    0    0    0    0  0.00000000000E+00  0.00000000000E+00  0.39999999673E+01  0.40000000000E+01  0.51109989000E-03 0.  1.
     -623   -1    0    0    0    0  0.00000000000E+00  0.00000000000E+00  0.12525980253E-10  0.17130000000E+03  0.17130000000E+03 0.  1.
       11    1    1    2    0    0  0.11577812155E-01 -0.27504175190E-01  0.62561658589E+00  0.62632810822E+00  0.51109989000E-03 0.  1.
     -623    1    1    2    0    0 -0.33854940696E-02 -0.35862774781E-02  0.88611475302E-03  0.17130000007E+03  0.17130000000E+03 0.  1.
      622    1    1    2    0    0 -0.81923180857E-02  0.31090452668E-01  0.33734972667E+01  0.33736718184E+01  0.12000000000E-01 0.  1.
</event>
<event>
 5   0  0.3564000E+09  0.9118800E+02  0.7818608E-02  0.1180000E+00
       11   -1    0    0    0    0  0.00000000000E+00  0.00000000000E+00  0.39999999673E+01  0.40000000000E+01  0.51109989000E-03 0.  1.
     -623   -1    0    0    0    0  0.00000000000E+00  0.00000000000E+00  0.12525980253E-10  0.17130000000E+03  0.17130000000E+03 0.  1.
       11    1    1    2    0    0  0.18657182714E-01 -0.46093914612E-02  0.31123682523E+00  0.31183001709E+00  0.51109989000E-03 0.  1.
     -623    1    1    2    0    0 -0.53198259535E-03  0.88298007162E-02  0.65986347827E-03  0.17130000023E+03  0.17130000000E+03 0.  1.
      622    1    1    2    0    0 -0.18125200118E-01 -0.42204092550E-02  0.36881032787E+01  0.36881697532E+01  0.12000000000E-01 0.  1.
</event>
<event>
 5   0  0.3564000E+09  0.9118800E+02  0.7818608E-02  0.1180000E+00
       11   -1    0    0    0    0  0.00000000000E+00  0.00000000000E+00  0.39999999673E+01  0.40000000000E+01  0.51109989000E-03 0.  1.
     -623   -1    0    0    0    0  0.00000000000E+00  0.00000000000E+00  0.12525980253E-10  0.17130000000E+03  0.17130000000E+03 0. -1.
       11    1    1    2    0    0 -0.28237268568E-02  0.21545624394E-02  0.12345891345E+00  0.12351105256E+00  0.51109989000E-03 0.  1.
     -623    1    1    2    0    0 -0.10328520628E-02 -0.77944737116E-03  0.72847226806E-04  0.17130000000E+03  0.17130000000E+03 0. -1.
      622    1    1    2    0    0  0.38565789207E-02 -0.13751150675E-02  0.38764682107E+01  0.38764889466E+01  0.12000000000E-01 0.  1.
</event>
<event>
 5   0  0.3564000E+09  0.9118800E+02  0.7818608E-02  0.1180000E+00
       11   -1    0    0    0    0  0.00000000000E+00  0.00000000000E+00  0.39999999673E+01  0.40000000000E+01  0.51109989000E-03 0. -1.
     -623   -1    0    0    0    0  0.00000000000E+00  0.00000000000E+00  0.12525980253E-10  0.17130000000E+03  0.17130000000E+03 0. -1.
       11    1    1    2    0    0  0.36084319403E-03  0.32341483095E-03  0.17270110438E-01  0.17284465355E-01  0.51109989000E-03 0.  1.
     -623    1    1    2    0    0 -0.13861955420E-02  0.91421186406E-03  0.32732772678E-04  0.17130000001E+03  0.17130000000E+03 0. -1.
      622    1    1    2    0    0  0.10253523550E-02 -0.12376266996E-02  0.39826971444E+01  0.39827155469E+01  0.12000000000E-01 0. -1.
</event>
<event>
 5   0  0.3564000E+09  0.9118800E+02  0.7818608E-02  0.1180000E+00
       11   -1    0    0    0    0  0.00000000000E+00  0.00000000000E+00  0.39999999673E+01  0.40000000000E+01  0.51109989000E-03 0.  1.
     -623   -1    0    0    0    0  0.00000000000E+00  0.00000000000E+00  0.12525980253E-10  0.17130000000E+03  0.17130000000E+03 0.  1.
       11    1    1    2    0    0 -0.10607267197E-02 -0.61868114459E-03  0.26067466407E-01  0.26101378004E-01  0.51109989000E-03 0.  1.
     -623    1    1    2    0    0 -0.54590745479E-04  0.40223506219E-04  0.52195863090E-04  0.17130000000E+03  0.17130000000E+03 0.  1.
      622    1    1    2    0    0  0.11153174652E-02  0.57845763837E-03  0.39738803051E+01  0.39738986220E+01  0.12000000000E-01 0.  1.
</event>
<event>
 5   0  0.3564000E+09  0.9118800E+02  0.7818608E-02  0.1180000E+00
       11   -1    0    0    0    0  0.00000000000E+00  0.00000000000E+00  0.39999999673E+01  0.40000000000E+01  0.51109989000E-03 0. -1.
     -623   -1    0    0    0    0  0.00000000000E+00  0.00000000000E+00  0.12525980253E-10  0.17130000000E+03  0.17130000000E+03 0. -1.
       11    1    1    2    0    0  0.15640718280E-02 -0.58437183954E-03  0.16984783623E-01  0.17074305518E-01  0.51109989000E-03 0. -1.
     -623    1    1    2    0    0 -0.45055662472E-02 -0.16851693551E-03  0.10878318074E-03  0.17130000006E+03  0.17130000000E+03 0. -1.
      622    1    1    2    0    0  0.29414944205E-02  0.75288877509E-03  0.39829064017E+01  0.39829256362E+01  0.12000000000E-01 0. -1.
</event>
<event>
 5   0  0.3564000E+09  0.9118800E+02  0.7818608E-02  0.1180000E+00
       11   -1    0    0    0    0  0.00000000000E+00  0.00000000000E+00  0.39999999673E+01  0.40000000000E+01  0.51109989000E-03 0.  1.
     -623   -1    0    0    0    0  0.00000000000E+00  0.00000000000E+00  0.12525980253E-10  0.17130000000E+03  0.17130000000E+03 0.  1.
       11    1    1    2    0    0  0.14859119365E-02  0.19584401824E-02  0.20278880893E-01  0.20433738094E-01  0.51109989000E-03 0.  1.
     -623    1    1    2    0    0  0.12579996270E-03 -0.29743656855E-02  0.17339902984E-03  0.17130000003E+03  0.17130000000E+03 0.  1.
      622    1    1    2    0    0 -0.16117118992E-02  0.10159255031E-02  0.39795476874E+01  0.39795662359E+01  0.12000000000E-01 0.  1.
</event>
<event>
 5   0  0.3564000E+09  0.9118800E+02  0.7818608E-02  0.1180000E+00
       11   -1    0    0    0    0  0.00000000000E+00  0.00000000000E+00  0.39999999673E+01  0.40000000000E+01  0.51109989000E-03 0.  1.
     -623   -1    0    0    0    0  0.00000000000E+00  0.00000000000E+00  0.12525980253E-10  0.17130000000E+03  0.17130000000E+03 0. -1.
       11    1    1    2    0    0 -0.61414285766E-03 -0.11125376376E-03  0.38708117470E-02  0.39539797076E-02  0.51109989000E-03 0.  1.
     -623    1    1    2    0    0  0.17101759348E-03 -0.72839842550E-03  0.10126761947E-03  0.17130000000E+03  0.17130000000E+03 0. -1.
      622    1    1    2    0    0  0.44312526413E-03  0.83965218949E-03  0.39960278892E+01  0.39960460199E+01  0.12000000000E-01 0.  1.
</event>
<event>
 5   0  0.3564000E+09  0.9118800E+02  0.7818608E-02  0.1180000E+00
       11   -1    0    0    0    0  0.00000000000E+00  0.00000000000E+00  0.39999999673E+01  0.40000000000E+01  0.51109989000E-03 0. -1.
     -623   -1    0    0    0    0  0.00000000000E+00  0.00000000000E+00  0.12525980253E-10  0.17130000000E+03  0.17130000000E+03 0.  1.
       11    1    1    2    0    0  0.73057375820E-02  0.30226668114E-02  0.67884894297E+00  0.67889517520E+00  0.51109989000E-03 0. -1.
     -623    1    1    2    0    0  0.10802447312E-03  0.16174683745E-02  0.79403435019E-04  0.17130000001E+03  0.17130000000E+03 0.  1.
      622    1    1    2    0    0 -0.74137620551E-02 -0.46401351854E-02  0.33210716199E+01  0.33211048160E+01  0.12000000000E-01 0. -1.
</event>
<event>
 5   0  0.3564000E+09  0.9118800E+02  0.7818608E-02  0.1180000E+00
       11   -1    0    0    0    0  0.00000000000E+00  0.00000000000E+00  0.39999999673E+01  0.40000000000E+01  0.51109989000E-03 0. -1.
     -623   -1    0    0    0    0  0.00000000000E+00  0.00000000000E+00  0.12525980253E-10  0.17130000000E+03  0.17130000000E+03 0. -1.
       11    1    1    2    0    0  0.20068428798E-02  0.14614207473E-02  0.39745532657E+00  0.39746340839E+00  0.51109989000E-03 0. -1.
     -623    1    1    2    0    0  0.41901481449E-02 -0.32613853517E-02  0.33897108117E-04  0.17130000008E+03  0.17130000000E+03 0. -1.
      622    1    1    2    0    0 -0.61969910330E-02  0.17999646108E-02  0.36025107516E+01  0.36025365172E+01  0.12000000000E-01 0. -1.
</event>
<event>
 5   0  0.3564000E+09  0.9118800E+02  0.7818608E-02  0.1180000E+00
       11   -1    0    0    0    0  0.00000000000E+00  0.00000000000E+00  0.39999999673E+01  0.40000000000E+01  0.51109989000E-03 0. -1.
     -623   -1    0    0    0    0  0.00000000000E+00  0.00000000000E+00  0.12525980253E-10  0.17130000000E+03  0.17130000000E+03 0. -1.
       11    1    1    2    0    0 -0.24242596463E-02  0.13341041171E-02  0.51691259292E-02  0.58854017102E-02  0.51109989000E-03 0.  1.
     -623    1    1    2    0    0  0.24156640614E-02 -0.11052104034E-02  0.73429844508E-03  0.17130000002E+03  0.17130000000E+03 0. -1.
      622    1    1    2    0    0  0.85955849417E-05 -0.22889371372E-03  0.39940965430E+01  0.39941145761E+01  0.12000000000E-01 0. -1.
</event>
<event>
 5   0  0.3564000E+09  0.9118800E+02  0.7818608E-02  0.1180000E+00
       11   -1    0    0    0    0  0.00000000000E+00  0.00000000000E+00  0.39999999673E+01  0.40000000000E+01  0.51109989000E-03 0.  1.
     -623   -1    0    0    0    0  0.00000000000E+00  0.00000000000E+00  0.12525980253E-10  0.17130000000E+03  0.17130000000E+03 0.  1.
       11    1    1    2    0    0 -0.17419696222E-03  0.30407517249E-02  0.27410050116E-01  0.27583483889E-01  0.51109989000E-03 0.  1.
     -623    1    1    2    0    0  0.54254086447E-03 -0.59476980884E-03  0.19229828966E-03  0.17130000000E+03  0.17130000000E+03 0.  1.
      622    1    1    2    0    0 -0.36834390225E-03 -0.24459819161E-02  0.39723976190E+01  0.39724165141E+01  0.12000000000E-01 0.  1.
</event>
<event>
 5   0  0.3564000E+09  0.9118800E+02  0.7818608E-02  0.1180000E+00
       11   -1    0    0    0    0  0.00000000000E+00  0.00000000000E+00  0.39999999673E+01  0.40000000000E+01  0.51109989000E-03 0. -1.
     -623   -1    0    0    0    0  0.00000000000E+00  0.00000000000E+00  0.12525980253E-10  0.17130000000E+03  0.17130000000E+03 0. -1.
       11    1    1    2    0    0  0.18401640312E-02  0.83447619661E-03  0.87620504415E-01  0.87645288350E-01  0.51109989000E-03 0. -1.
     -623    1    1    2    0    0  0.10285602362E-03 -0.11875775202E-03  0.43702611574E-04  0.17130000000E+03  0.17130000000E+03 0. -1.
      622    1    1    2    0    0 -0.19430200548E-02 -0.71571844459E-03  0.39123357603E+01  0.39123547116E+01  0.12000000000E-01 0. -1.
</event>
<event>
 5   0  0.3564000E+09  0.9118800E+02  0.7818608E-02  0.1180000E+00
       11   -1    0    0    0    0  0.00000000000E+00  0.00000000000E+00  0.39999999673E+01  0.40000000000E+01  0.51109989000E-03 0.  1.
     -623   -1    0    0    0    0  0.00000000000E+00  0.00000000000E+00  0.12525980253E-10  0.17130000000E+03  0.17130000000E+03 0.  1.
       11    1    1    2    0    0 -0.54916177606E-04 -0.46264621490E-02  0.67911527815E+00  0.67913123136E+00  0.51109989000E-03 0.  1.
     -623    1    1    2    0    0  0.28449041421E-02  0.20849205315E-02  0.39782583109E-04  0.17130000004E+03  0.17130000000E+03 0.  1.
      622    1    1    2    0    0 -0.27899879645E-02  0.25415416175E-02  0.33208449066E+01  0.33208687323E+01  0.12000000000E-01 0.  1.
</event>
<event>
 5   0  0.3564000E+09  0.9118800E+02  0.7818608E-02  0.1180000E+00
       11   -1    0    0    0    0  0.00000000000E+00  0.00000000000E+00  0.39999999673E+01  0.40000000000E+01  0.51109989000E-03 0.  1.
     -623   -1    0    0    0    0  0.00000000000E+00  0.00000000000E+00  0.12525980253E-10  0.17130000000E+03  0.17130000000E+03 0.  1.
       11    1    1    2    0    0 -0.30593266403E-02 -0.28038738957E-02  0.22036359562E+00  0.22040325924E+00  0.51109989000E-03 0.  1.
     -623    1    1    2    0    0 -0.21982969760E-02  0.38091256768E-02  0.62527675410E-04  0.17130000006E+03  0.17130000000E+03 0.  1.
      622    1    1    2    0    0  0.52576236213E-02 -0.10052517897E-02  0.37795738531E+01  0.37795966933E+01  0.12000000000E-01 0.  1.
</event>
<event>
 5   0  0.3564000E+09  0.9118800E+02  0.7818608E-02  0.1180000E+00
       11   -1    0    0    0    0  0.00000000000E+00  0.00000000000E+00  0.39999999673E+01  0.40000000000E+01  0.51109989000E-03 0. -1.
     -623   -1    0    0    0    0  0.00000000000E+00  0.00000000000E+00  0.12525980253E-10  0.17130000000E+03  0.17130000000E+03 0. -1.
       11    1    1    2    0    0  0.22787853288E-02  0.16564219127E-02  0.83459446711E-01  0.83508544859E-01  0.51109989000E-03 0. -1.
     -623    1    1    2    0    0 -0.33492848726E-02 -0.20097502426E-02  0.67656137661E-04  0.17130000004E+03  0.17130000000E+03 0. -1.
      622    1    1    2    0    0  0.10704995423E-02  0.35332832906E-03  0.39164728628E+01  0.39164914089E+01  0.12000000000E-01 0. -1.
</event>
<event>
 5   0  0.3564000E+09  0.9118800E+02  0.7818608E-02  0.1180000E+00
       11   -1    0    0    0    0  0.00000000000E+00  0.00000000000E+00  0.39999999673E+01  0.40000000000E+01  0.51109989000E-03 0. -1.
     -623   -1    0    0    0    0  0.00000000000E+00  0.00000000000E+00  0.12525980253E-10  0.17130000000E+03  0.17130000000E+03 0.  1.
       11    1    1    2    0    0 -0.11185259578E-03  0.27052442741E-02  0.61991011862E+00  0.61991624212E+00  0.51109989000E-03 0. -1.
     -623    1    1    2    0    0  0.63600523470E-03 -0.18479669933E-02  0.27552682525E-04  0.17130000001E+03  0.17130000000E+03 0.  1.
      622    1    1    2    0    0 -0.52415263892E-03 -0.85727728084E-03  0.33800622961E+01  0.33800837467E+01  0.12000000000E-01 0.  0.
</event>
<event>
 5   0  0.3564000E+09  0.9118800E+02  0.7818608E-02  0.1180000E+00
       11   -1    0    0    0    0  0.00000000000E+00  0.00000000000E+00  0.39999999673E+01  0.40000000000E+01  0.51109989000E-03 0. -1.
     -623   -1    0    0    0    0  0.00000000000E+00  0.00000000000E+00  0.12525980253E-10  0.17130000000E+03  0.17130000000E+03 0. -1.
       11    1    1    2    0    0  0.62931960610E-03  0.70052620150E-02  0.64110633900E+00  0.64114512309E+00  0.51109989000E-03 0. -1.
     -623    1    1    2    0    0  0.99837848189E-03  0.48227128706E-03  0.68931035331E-04  0.17130000000E+03  0.17130000000E+03 0. -1.
      622    1    1    2    0    0 -0.16276980898E-02 -0.74875333029E-02  0.33588247044E+01  0.33588548803E+01  0.12000000000E-01 0. -1.
</event>
<event>
 5   0  0.3564000E+09  0.9118800E+02  0.7818608E-02  0.1180000E+00
       11   -1    0    0    0    0  0.00000000000E+00  0.00000000000E+00  0.39999999673E+01  0.40000000000E+01  0.51109989000E-03 0. -1.
     -623   -1    0    0    0    0  0.00000000000E+00  0.00000000000E+00  0.12525980253E-10  0.17130000000E+03  0.17130000000E+03 0.  1.
       11    1    1    2    0    0  0.31345857589E-03 -0.35813984566E-03  0.32206226633E+00  0.32206302355E+00  0.51109989000E-03 0. -1.
     -623    1    1    2    0    0 -0.26193595102E-04 -0.44617054384E-04  0.20334101428E-04  0.17130000000E+03  0.17130000000E+03 0.  1.
      622    1    1    2    0    0 -0.28726498079E-03  0.40275690004E-03  0.36779173669E+01  0.36779369764E+01  0.12000000000E-01 0. -1.
</event>
<event>
 5   0  0.3564000E+09  0.9118800E+02  0.7818608E-02  0.1180000E+00
       11   -1    0    0    0    0  0.00000000000E+00  0.00000000000E+00  0.39999999673E+01  0.40000000000E+01  0.51109989000E-03 0. -1.
     -623   -1    0    0    0    0  0.00000000000E+00  0.00000000000E+00  0.12525980253E-10  0.17130000000E+03  0.17130000000E+03 0. -1.
       11    1    1    2    0    0  0.15377832287E-02 -0.19335800859E-02  0.38121380539E+00  0.38122215328E+00  0.51109989000E-03 0. -1.
     -623    1    1    2    0    0 -0.49030465453E-02  0.78624292193E-02  0.34883717631E-04  0.17130000025E+03  0.17130000000E+03 0. -1.
      622    1    1    2    0    0  0.33652633166E-02 -0.59288491334E-02  0.36187512783E+01  0.36187775961E+01  0.12000000000E-01 0.  1.
</event>
<event>
 5   0  0.3564000E+09  0.9118800E+02  0.7818608E-02  0.1180000E+00
       11   -1    0    0    0    0  0.00000000000E+00  0.00000000000E+00  0.39999999673E+01  0.40000000000E+01  0.51109989000E-03 0.  1.
     -623   -1    0    0    0    0  0.00000000000E+00  0.00000000000E+00  0.12525980253E-10  0.17130000000E+03  0.17130000000E+03 0. -1.
       11    1    1    2    0    0  0.12066080725E-02  0.82814562394E-03  0.48896626071E-01  0.48921191649E-01  0.51109989000E-03 0.  1.
     -623    1    1    2    0    0 -0.36353397637E-03 -0.11047641262E-02  0.42859435806E-04  0.17130000000E+03  0.17130000000E+03 0. -1.
      622    1    1    2    0    0 -0.84307409547E-03  0.27661850425E-03  0.39510604890E+01  0.39510788115E+01  0.12000000000E-01 0.  1.
</event>
<event>
 5   0  0.3564000E+09  0.9118800E+02  0.7818608E-02  0.1180000E+00
       11   -1    0    0    0    0  0.00000000000E+00  0.00000000000E+00  0.39999999673E+01  0.40000000000E+01  0.51109989000E-03 0. -1.
     -623   -1    0    0    0    0  0.00000000000E+00  0.00000000000E+00  0.12525980253E-10  0.17130000000E+03  0.17130000000E+03 0.  1.
       11    1    1    2    0    0  0.57407712633E-03 -0.22260895630E-03  0.40130257958E-01  0.40138235464E-01  0.51109989000E-03 0. -1.
     -623    1    1    2    0    0  0.55842883153E-03  0.33923076729E-03  0.26292273147E-04  0.17130000000E+03  0.17130000000E+03 0.  1.
      622    1    1    2    0    0 -0.11325059567E-02 -0.11662181030E-03  0.39598434090E+01  0.39598617552E+01  0.12000000000E-01 0. -1.
</event>
<event>
 5   0  0.3564000E+09  0.9118800E+02  0.7818608E-02  0.1180000E+00
       11   -1    0    0    0    0  0.00000000000E+00  0.00000000000E+00  0.39999999673E+01  0.40000000000E+01  0.51109989000E-03 0.  1.
     -623   -1    0    0    0    0  0.00000000000E+00  0.00000000000E+00  0.12525980253E-10  0.17130000000E+03  0.17130000000E+03 0. -1.
       11    1    1    2    0    0 -0.21341455553E-02 -0.19238959631E-02  0.85153897016E-01  0.85203892813E-01  0.51109989000E-03 0.  1.
     -623    1    1    2    0    0 -0.40498687648E-04  0.26649493661E-03  0.69310039581E-04  0.17130000000E+03  0.17130000000E+03 0. -1.
      622    1    1    2    0    0  0.21746442430E-02  0.16574010265E-02  0.39147767603E+01  0.39147961070E+01  0.12000000000E-01 0.  1.
</event>
<event>
 5   0  0.3564000E+09  0.9118800E+02  0.7818608E-02  0.1180000E+00
       11   -1    0    0    0    0  0.00000000000E+00  0.00000000000E+00  0.39999999673E+01  0.40000000000E+01  0.51109989000E-03 0.  1.
     -623   -1    0    0    0    0  0.00000000000E+00  0.00000000000E+00  0.12525980253E-10  0.17130000000E+03  0.17130000000E+03 0. -1.
       11    1    1    2    0    0  0.34960177426E-03 -0.14786544508E-03  0.56412380467E+00  0.56412416391E+00  0.51109989000E-03 0.  1.
     -623    1    1    2    0    0  0.72729035133E-04 -0.84036199280E-05  0.21311541699E-04  0.17130000000E+03  0.17130000000E+03 0. -1.
      622    1    1    2    0    0 -0.42233080939E-03  0.15626906501E-03  0.34358548511E+01  0.34358758361E+01  0.12000000000E-01 0.  1.
</event>
<event>
 5   0  0.3564000E+09  0.9118800E+02  0.7818608E-02  0.1180000E+00
       11   -1    0    0    0    0  0.00000000000E+00  0.00000000000E+00  0.39999999673E+01  0.40000000000E+01  0.51109989000E-03 0. -1.
     -623   -1    0    0    0    0  0.00000000000E+00  0.00000000000E+00  0.12525980253E-10  0.17130000000E+03  0.17130000000E+03 0. -1.
       11    1    1    2    0    0 -0.67611330020E-03  0.75761271989E-03  0.19307061475E+00  0.19307396150E+00  0.51109989000E-03 0. -1.
     -623    1    1    2    0    0  0.93231221274E-04 -0.14175545291E-03  0.22321577149E-04  0.17130000000E+03  0.17130000000E+03 0. -1.
      622    1    1    2    0    0  0.58288207923E-03 -0.61585726744E-03  0.38069070181E+01  0.38069260255E+01  0.12000000000E-01 0. -1.
</event>
<event>
 5   0  0.3564000E+09  0.9118800E+02  0.7818608E-02  0.1180000E+00
       11   -1    0    0    0    0  0.00000000000E+00  0.00000000000E+00  0.39999999673E+01  0.40000000000E+01  0.51109989000E-03 0.  1.
     -623   -1    0    0    0    0  0.00000000000E+00  0.00000000000E+00  0.12525980253E-10  0.17130000000E+03  0.17130000000E+03 0.  1.
       11    1    1    2    0    0 -0.21921456717E-02 -0.10094658740E-02  0.15175161569E-01  0.15374370654E-01  0.51109989000E-03 0.  1.
     -623    1    1    2    0    0  0.12243139889E-03  0.75466938480E-03  0.21779346171E-03  0.17130000000E+03  0.17130000000E+03 0.  1.
      622    1    1    2    0    0  0.20697142728E-02  0.25479648916E-03  0.39846070123E+01  0.39846256275E+01  0.12000000000E-01 0.  1.
</event>
<event>
 5   0  0.3564000E+09  0.9118800E+02  0.7818608E-02  0.1180000E+00
       11   -1    0    0    0    0  0.00000000000E+00  0.00000000000E+00  0.39999999673E+01  0.40000000000E+01  0.51109989000E-03 0. -1.
     -623   -1    0    0    0    0  0.00000000000E+00  0.00000000000E+00  0.12525980253E-10  0.17130000000E+03  0.17130000000E+03 0.  1.
       11    1    1    2    0    0  0.75789824746E-02  0.31464192189E-03  0.52941498540E+00  0.52946957228E+00  0.51109989000E-03 0. -1.
     -623    1    1    2    0    0 -0.61914183277E-02  0.46070551917E-02  0.79241501796E-04  0.17130000017E+03  0.17130000000E+03 0.  1.
      622    1    1    2    0    0 -0.13875641484E-02 -0.49216971125E-02  0.34705057395E+01  0.34705302529E+01  0.12000000000E-01 0. -1.
</event>
<event>
 5   0  0.3564000E+09  0.9118800E+02  0.7818608E-02  0.1180000E+00
       11   -1    0    0    0    0  0.00000000000E+00  0.00000000000E+00  0.39999999673E+01  0.40000000000E+01  0.51109989000E-03 0.  1.
     -623   -1    0    0    0    0  0.00000000000E+00  0.00000000000E+00  0.12525980253E-10  0.17130000000E+03  0.17130000000E+03 0.  1.
       11    1    1    2    0    0  0.46599351669E-03 -0.12768561017E-03  0.10048300342E+00  0.10048546487E+00  0.51109989000E-03 0.  1.
     -623    1    1    2    0    0  0.12659580248E-03 -0.66245328755E-04  0.20942601447E-04  0.17130000000E+03  0.17130000000E+03 0.  1.
      622    1    1    2    0    0 -0.59258931916E-03  0.19393093892E-03  0.38994960213E+01  0.38995145351E+01  0.12000000000E-01 0.  1.
</event>
<event>
 5   0  0.3564000E+09  0.9118800E+02  0.7818608E-02  0.1180000E+00
       11   -1    0    0    0    0  0.00000000000E+00  0.00000000000E+00  0.39999999673E+01  0.40000000000E+01  0.51109989000E-03 0.  1.
     -623   -1    0    0    0    0  0.00000000000E+00  0.00000000000E+00  0.12525980253E-10  0.17130000000E+03  0.17130000000E+03 0. -1.
       11    1    1    2    0    0 -0.28745694420E-02  0.27649433350E-03  0.11709715304E+01  0.11709752029E+01  0.51109989000E-03 0.  1.
     -623    1    1    2    0    0 -0.45145450531E-04  0.12045964300E-05  0.30610758320E-04  0.17130000000E+03  0.17130000000E+03 0. -1.
      622    1    1    2    0    0  0.29197148925E-02 -0.27769892993E-03  0.28289978262E+01  0.28290247971E+01  0.12000000000E-01 0.  1.
</event>
<event>
 5   0  0.3564000E+09  0.9118800E+02  0.7818608E-02  0.1180000E+00
       11   -1    0    0    0    0  0.00000000000E+00  0.00000000000E+00  0.39999999673E+01  0.40000000000E+01  0.51109989000E-03 0.  1.
     -623   -1    0    0    0    0  0.00000000000E+00  0.00000000000E+00  0.12525980253E-10  0.17130000000E+03  0.17130000000E+03 0.  1.
       11    1    1    2    0    0 -0.10736600949E-03  0.87721210691E-03  0.80086639469E-01  0.80093146230E-01  0.51109989000E-03 0.  1.
     -623    1    1    2    0    0  0.49532415338E-06  0.24715327352E-03  0.25004838936E-04  0.17130000000E+03  0.17130000000E+03 0.  1.
      622    1    1    2    0    0  0.10687068534E-03 -0.11243653802E-02  0.39198883190E+01  0.39199068496E+01  0.12000000000E-01 0.  1.
</event>
<event>
 5   0  0.3564000E+09  0.9118800E+02  0.7818608E-02  0.1180000E+00
       11   -1    0    0    0    0  0.00000000000E+00  0.00000000000E+00  0.39999999673E+01  0.40000000000E+01  0.51109989000E-03 0.  1.
     -623   -1    0    0    0    0  0.00000000000E+00  0.00000000000E+00  0.12525980253E-10  0.17130000000E+03  0.17130000000E+03 0. -1.
       11    1    1    2    0    0  0.26143381908E-02 -0.71169247986E-03  0.26120372258E-01  0.26265497147E-01  0.51109989000E-03 0.  1.
     -623    1    1    2    0    0  0.22948531455E-03 -0.26772904242E-03  0.16435001206E-03  0.17130000000E+03  0.17130000000E+03 0. -1.
      622    1    1    2    0    0 -0.28438235055E-02  0.97942152247E-03  0.39737152479E+01  0.39737345052E+01  0.12000000000E-01 0.  1.
</event>
<event>
 5   0  0.3564000E+09  0.9118800E+02  0.7818608E-02  0.1180000E+00
       11   -1    0    0    0    0  0.00000000000E+00  0.00000000000E+00  0.39999999673E+01  0.40000000000E+01  0.51109989000E-03 0.  1.
     -623   -1    0    0    0    0  0.00000000000E+00  0.00000000000E+00  0.12525980253E-10  0.17130000000E+03  0.17130000000E+03 0. -1.
       11    1    1    2    0    0 -0.16693463910E-03 -0.33676955787E-03  0.84867075843E-01  0.84869447174E-01  0.51109989000E-03 0.  1.
     -623    1    1    2    0    0  0.23002671977E-04 -0.31785402909E-03  0.20786596899E-04  0.17130000000E+03  0.17130000000E+03 0. -1.
      622    1    1    2    0    0  0.14393196712E-03  0.65462358697E-03  0.39151121049E+01  0.39151305525E+01  0.12000000000E-01 0.  1.
</event>
<event>
 5   0  0.3564000E+09  0.9118800E+02  0.7818608E-02  0.1180000E+00
       11   -1    0    0    0    0  0.00000000000E+00  0.00000000000E+00  0.39999999673E+01  0.40000000000E+01  0.51109989000E-03 0. -1.
     -623   -1    0    0    0    0  0.00000000000E+00  0.00000000000E+00  0.12525980253E-10  0.17130000000E+03  0.17130000000E+03 0. -1.
       11    1    1    2    0    0 -0.14022791828E-02  0.10272971162E-02  0.41296217601E-01  0.41335947280E-01  0.51109989000E-03 0. -1.
     -623    1    1    2    0    0 -0.14643996438E-03 -0.12668957711E-04  0.58318083985E-04  0.17130000000E+03  0.17130000000E+03 0. -1.
      622    1    1    2    0    0  0.15487191473E-02 -0.10146281585E-02  0.39586454353E+01  0.39586640563E+01  0.12000000000E-01 0. -1.
</event>
<event>
 5   0  0.3564000E+09  0.9118800E+02  0.7818608E-02  0.1180000E+00
       11   -1    0    0    0    0  0.00000000000E+00  0.00000000000E+00  0.39999999673E+01  0.40000000000E+01  0.51109989000E-03 0. -1.
     -623   -1    0    0    0    0  0.00000000000E+00  0.00000000000E+00  0.12525980253E-10  0.17130000000E+03  0.17130000000E+03 0. -1.
       11    1    1    2    0    0 -0.79148833394E-02  0.86782934838E-02  0.95922028383E-01  0.96639820501E-01  0.51109989000E-03 0. -1.
     -623    1    1    2    0    0  0.13757549831E-02 -0.15491704497E-02  0.74820710381E-03  0.17130000001E+03  0.17130000000E+03 0. -1.
      622    1    1    2    0    0  0.65391283563E-02 -0.71291230341E-02  0.39033297319E+01  0.39033601653E+01  0.12000000000E-01 0. -1.
</event>
<event>
 5   0  0.3564000E+09  0.9118800E+02  0.7818608E-02  0.1180000E+00
       11   -1    0    0    0    0  0.00000000000E+00  0.00000000000E+00  0.39999999673E+01  0.40000000000E+01  0.51109989000E-03 0.  1.
     -623   -1    0    0    0    0  0.00000000000E+00  0.00000000000E+00  0.12525980253E-10  0.17130000000E+03  0.17130000000E+03 0. -1.
       11    1    1    2    0    0 -0.33472498915E-02  0.37424330204E-02  0.27208148486E+00  0.27212828870E+00  0.51109989000E-03 0.  1.
     -623    1    1    2    0    0  0.35887720986E-02 -0.31152783982E-02  0.66211733264E-04  0.17130000007E+03  0.17130000000E+03 0. -1.
      622    1    1    2    0    0 -0.24152220713E-03 -0.62715462220E-03  0.37278522708E+01  0.37278716454E+01  0.12000000000E-01 0.  0.
</event>
<event>
 5   0  0.3564000E+09  0.9118800E+02  0.7818608E-02  0.1180000E+00
       11   -1    0    0    0    0  0.00000000000E+00  0.00000000000E+00  0.39999999673E+01  0.40000000000E+01  0.51109989000E-03 0.  1.
     -623   -1    0    0    0    0  0.00000000000E+00  0.00000000000E+00  0.12525980253E-10  0.17130000000E+03  0.17130000000E+03 0. -1.
       11    1    1    2    0    0  0.56120640070E-02 -0.10369432978E-02  0.98123883779E+00  0.98125556738E+00  0.51109989000E-03 0.  1.
     -623    1    1    2    0    0  0.11677557536E-03 -0.81509556111E-04  0.46191304238E-04  0.17130000000E+03  0.17130000000E+03 0. -1.
      622    1    1    2    0    0 -0.57288395823E-02  0.11184528539E-02  0.30187149372E+01  0.30187444315E+01  0.12000000000E-01 0.  0.
</event>
<event>
 5   0  0.3564000E+09  0.9118800E+02  0.7818608E-02  0.1180000E+00
       11   -1    0    0    0    0  0.00000000000E+00  0.00000000000E+00  0.39999999673E+01  0.40000000000E+01  0.51109989000E-03 0. -1.
     -623   -1    0    0    0    0  0.00000000000E+00  0.00000000000E+00  0.12525980253E-10  0.17130000000E+03  0.17130000000E+03 0. -1.
       11    1    1    2    0    0 -0.14231776426E-02  0.25134549882E-02  0.61292387907E+00  0.61293089794E+00  0.51109989000E-03 0. -1.
     -623    1    1    2    0    0 -0.11021259314E-03  0.18978098092E-04  0.29537477170E-04  0.17130000000E+03  0.17130000000E+03 0. -1.
      622    1    1    2    0    0  0.15333902361E-02 -0.25324330864E-02  0.33870465637E+01  0.33870691149E+01  0.12000000000E-01 0. -1.
</event>
<event>
 5   0  0.3564000E+09  0.9118800E+02  0.7818608E-02  0.1180000E+00
       11   -1    0    0    0    0  0.00000000000E+00  0.00000000000E+00  0.39999999673E+01  0.40000000000E+01  0.51109989000E-03 0.  1.
     -623   -1    0    0    0    0  0.00000000000E+00  0.00000000000E+00  0.12525980253E-10  0.17130000000E+03  0.17130000000E+03 0.  1.
       11    1    1    2    0    0  0.16512453784E-02  0.27226120958E-04  0.81078810061E-01  0.81097238033E-01  0.51109989000E-03 0.  1.
     -623    1    1    2    0    0 -0.21754926999E-04  0.28068941073E-04  0.37107037092E-04  0.17130000000E+03  0.17130000000E+03 0.  1.
      622    1    1    2    0    0 -0.16294904514E-02 -0.55295062031E-04  0.39188840503E+01  0.39189027620E+01  0.12000000000E-01 0.  1.
</event>
<event>
 5   0  0.3564000E+09  0.9118800E+02  0.7818608E-02  0.1180000E+00
       11   -1    0    0    0    0  0.00000000000E+00  0.00000000000E+00  0.39999999673E+01  0.40000000000E+01  0.51109989000E-03 0.  1.
     -623   -1    0    0    0    0  0.00000000000E+00  0.00000000000E+00  0.12525980253E-10  0.17130000000E+03  0.17130000000E+03 0.  1.
       11    1    1    2    0    0 -0.12532706438E-02 -0.37692634794E-02  0.17781755101E+00  0.17786264562E+00  0.51109989000E-03 0.  1.
     -623    1    1    2    0    0 -0.19927506256E-03 -0.10352737779E-03  0.66137876248E-04  0.17130000000E+03  0.17130000000E+03 0.  1.
      622    1    1    2    0    0  0.14525457065E-02  0.38727908573E-02  0.38221162812E+01  0.38221373570E+01  0.12000000000E-01 0.  1.
</event>
<event>
 5   0  0.3564000E+09  0.9118800E+02  0.7818608E-02  0.1180000E+00
       11   -1    0    0    0    0  0.00000000000E+00  0.00000000000E+00  0.39999999673E+01  0.40000000000E+01  0.51109989000E-03 0.  1.
     -623   -1    0    0    0    0  0.00000000000E+00  0.00000000000E+00  0.12525980253E-10  0.17130000000E+03  0.17130000000E+03 0.  1.
       11    1    1    2    0    0  0.19485794121E-02  0.17764931079E-02  0.46599599274E+00  0.46600373320E+00  0.51109989000E-03 0.  1.
     -623    1    1    2    0    0  0.74404259189E-03 -0.50896179483E-02  0.30737473996E-04  0.17130000008E+03  0.17130000000E+03 0.  1.
      622    1    1    2    0    0 -0.26926220040E-02  0.33131248404E-02  0.35339732371E+01  0.35339961896E+01  0.12000000000E-01 0.  1.
</event>
<event>
 5   0  0.3564000E+09  0.9118800E+02  0.7818608E-02  0.1180000E+00
       11   -1    0    0    0    0  0.00000000000E+00  0.00000000000E+00  0.39999999673E+01  0.40000000000E+01  0.51109989000E-03 0.  1.
     -623   -1    0    0    0    0  0.00000000000E+00  0.00000000000E+00  0.12525980253E-10  0.17130000000E+03  0.17130000000E+03 0. -1.
       11    1    1    2    0    0  0.19458872432E-02  0.18787653678E-02  0.10329262990E-01  0.10689767701E-01  0.51109989000E-03 0.  1.
     -623    1    1    2    0    0  0.57965641195E-02 -0.98604825987E-02  0.39440086106E-03  0.17130000038E+03  0.17130000000E+03 0. -1.
      622    1    1    2    0    0 -0.77424513638E-02  0.79817172329E-02  0.39892763043E+01  0.39893098508E+01  0.12000000000E-01 0.  1.
</event>
<event>
 5   0  0.3564000E+09  0.9118800E+02  0.7818608E-02  0.1180000E+00
       11   -1    0    0    0    0  0.00000000000E+00  0.00000000000E+00  0.39999999673E+01  0.40000000000E+01  0.51109989000E-03 0.  1.
     -623   -1    0    0    0    0  0.00000000000E+00  0.00000000000E+00  0.12525980253E-10  0.17130000000E+03  0.17130000000E+03 0.  1.
       11    1    1    2    0    0  0.29994206428E-03  0.15566037968E-02  0.12064830184E+00  0.12065979836E+00  0.51109989000E-03 0.  1.
     -623    1    1    2    0    0 -0.39734262324E-03 -0.74134076433E-03  0.30112736949E-04  0.17130000000E+03  0.17130000000E+03 0.  1.
      622    1    1    2    0    0  0.97400558962E-04 -0.81526303251E-03  0.38793215528E+01  0.38793401996E+01  0.12000000000E-01 0.  1.
</event>
<event>
 5   0  0.3564000E+09  0.9118800E+02  0.7818608E-02  0.1180000E+00
       11   -1    0    0    0    0  0.00000000000E+00  0.00000000000E+00  0.39999999673E+01  0.40000000000E+01  0.51109989000E-03 0.  1.
     -623   -1    0    0    0    0  0.00000000000E+00  0.00000000000E+00  0.12525980253E-10  0.17130000000E+03  0.17130000000E+03 0.  1.
       11    1    1    2    0    0 -0.25992982435E-02  0.10103473467E-02  0.31768991475E-01  0.31895253496E-01  0.51109989000E-03 0.  1.
     -623    1    1    2    0    0  0.89571260215E-03  0.71273637104E-03  0.14511779564E-03  0.17130000000E+03  0.17130000000E+03 0.  1.
      622    1    1    2    0    0  0.17035856415E-02 -0.17230837177E-02  0.39680858576E+01  0.39681047422E+01  0.12000000000E-01 0.  1.
</event>
<event>
 5   0  0.3564000E+09  0.9118800E+02  0.7818608E-02  0.1180000E+00
       11   -1    0    0    0    0  0.00000000000E+00  0.00000000000E+00  0.39999999673E+01  0.40000000000E+01  0.51109989000E-03 0.  1.
     -623   -1    0    0    0    0  0.00000000000E+00  0.00000000000E+00  0.12525980253E-10  0.17130000000E+03  0.17130000000E+03 0. -1.
       11    1    1    2    0    0 -0.32165988756E-02  0.44082985503E-02  0.99959326382E-01  0.10010947885E+00  0.51109989000E-03 0.  1.
     -623    1    1    2    0    0 -0.44977786411E-03 -0.75080132067E-03  0.17202277950E-03  0.17130000000E+03  0.17130000000E+03 0. -1.
      622    1    1    2    0    0  0.36663767397E-02 -0.36574972297E-02  0.38998686182E+01  0.38998905188E+01  0.12000000000E-01 0.  1.
</event>
<event>
 5   0  0.3564000E+09  0.9118800E+02  0.7818608E-02  0.1180000E+00
       11   -1    0    0    0    0  0.00000000000E+00  0.00000000000E+00  0.39999999673E+01  0.40000000000E+01  0.51109989000E-03 0. -1.
     -623   -1    0    0    0    0  0.00000000000E+00  0.00000000000E+00  0.12525980253E-10  0.17130000000E+03  0.17130000000E+03 0. -1.
       11    1    1    2    0    0  0.10295734861E-01 -0.52945912546E-02  0.51305660708E+00  0.51318746881E+00  0.51109989000E-03 0. -1.
     -623    1    1    2    0    0 -0.20000765037E-02 -0.46823108019E-03  0.16612146003E-03  0.17130000001E+03  0.17130000000E+03 0. -1.
      622    1    1    2    0    0 -0.82956583569E-02  0.57628223348E-02  0.34867772388E+01  0.34868125188E+01  0.12000000000E-01 0. -1.
</event>
<event>
 5   0  0.3564000E+09  0.9118800E+02  0.7818608E-02  0.1180000E+00
       11   -1    0    0    0    0  0.00000000000E+00  0.00000000000E+00  0.39999999673E+01  0.40000000000E+01  0.51109989000E-03 0.  1.
     -623   -1    0    0    0    0  0.00000000000E+00  0.00000000000E+00  0.12525980253E-10  0.17130000000E+03  0.17130000000E+03 0.  1.
       11    1    1    2    0    0 -0.26955955922E-02  0.15206009615E-02  0.22370133209E+00  0.22372332392E+00  0.51109989000E-03 0.  1.
     -623    1    1    2    0    0  0.76542396892E-04  0.39563166165E-04  0.42256184811E-04  0.17130000000E+03  0.17130000000E+03 0.  1.
      622    1    1    2    0    0  0.26190531953E-02 -0.15601641277E-02  0.37762563791E+01  0.37762766761E+01  0.12000000000E-01 0.  1.
</event>
<event>
 5   0  0.3564000E+09  0.9118800E+02  0.7818608E-02  0.1180000E+00
       11   -1    0    0    0    0  0.00000000000E+00  0.00000000000E+00  0.39999999673E+01  0.40000000000E+01  0.51109989000E-03 0.  1.
     -623   -1    0    0    0    0  0.00000000000E+00  0.00000000000E+00  0.12525980253E-10  0.17130000000E+03  0.17130000000E+03 0. -1.
       11    1    1    2    0    0 -0.24129711345E-02 -0.42927220566E-03  0.21103648095E+00  0.21105133076E+00  0.51109989000E-03 0.  1.
     -623    1    1    2    0    0 -0.33954038391E-03  0.47100463817E-03  0.34820873241E-04  0.17130000000E+03  0.17130000000E+03 0. -1.
      622    1    1    2    0    0  0.27525115181E-02 -0.41732432080E-04  0.37889286619E+01  0.37889486646E+01  0.12000000000E-01 0.  1.
</event>
<event>
 5   0  0.3564000E+09  0.9118800E+02  0.7818608E-02  0.1180000E+00
       11   -1    0    0    0    0  0.00000000000E+00  0.00000000000E+00  0.39999999673E+01  0.40000000000E+01  0.51109989000E-03 0.  1.
     -623   -1    0    0    0    0  0.00000000000E+00  0.00000000000E+00  0.12525980253E-10  0.17130000000E+03  0.17130000000E+03 0. -1.
       11    1    1    2    0    0  0.41966148221E-04  0.15506592052E-02  0.33842205362E-01  0.33881593674E-01  0.51109989000E-03 0.  1.
     -623    1    1    2    0    0 -0.27129749189E-04 -0.16606216693E-04  0.57806202436E-04  0.17130000000E+03  0.17130000000E+03 0. -1.
      622    1    1    2    0    0 -0.14836399032E-04 -0.15340529885E-02  0.39660999558E+01  0.39661184063E+01  0.12000000000E-01 0.  1.
</event>
<event>
 5   0  0.3564000E+09  0.9118800E+02  0.7818608E-02  0.1180000E+00
       11   -1    0    0    0    0  0.00000000000E+00  0.00000000000E+00  0.39999999673E+01  0.40000000000E+01  0.51109989000E-03 0. -1.
     -623   -1    0    0    0    0  0.00000000000E+00  0.00000000000E+00  0.12525980253E-10  0.17130000000E+03  0.17130000000E+03 0. -1.
       11    1    1    2    0    0  0.12151107322E-02 -0.16580454051E-02  0.87750927560E-01  0.87776489553E-01  0.51109989000E-03 0. -1.
     -623    1    1    2    0    0 -0.34407638942E-02  0.19244351698E-02  0.44620781353E-04  0.17130000005E+03  0.17130000000E+03 0. -1.
      622    1    1    2    0    0  0.22256531620E-02 -0.26638976463E-03  0.39122044190E+01  0.39122234651E+01  0.12000000000E-01 0. -1.
</event>
<event>
 5   0  0.3564000E+09  0.9118800E+02  0.7818608E-02  0.1180000E+00
       11   -1    0    0    0    0  0.00000000000E+00  0.00000000000E+00  0.39999999673E+01  0.40000000000E+01  0.51109989000E-03 0.  1.
     -623   -1    0    0    0    0  0.00000000000E+00  0.00000000000E+00  0.12525980253E-10  0.17130000000E+03  0.17130000000E+03 0. -1.
       11    1    1    2    0    0 -0.18033402051E-02  0.42379878239E-02  0.61391606985E-01  0.61566250560E-01  0.51109989000E-03 0.  1.
     -623    1    1    2    0    0  0.20346858552E-04  0.52461547386E-03  0.19617650535E-03  0.17130000000E+03  0.17130000000E+03 0. -1.
      622    1    1    2    0    0  0.17829933466E-02 -0.47626032977E-02  0.39384121834E+01  0.39384337480E+01  0.12000000000E-01 0.  1.
</event>
<event>
 5   0  0.3564000E+09  0.9118800E+02  0.7818608E-02  0.1180000E+00
       11   -1    0    0    0    0  0.00000000000E+00  0.00000000000E+00  0.39999999673E+01  0.40000000000E+01  0.51109989000E-03 0.  1.
     -623   -1    0    0    0    0  0.00000000000E+00  0.00000000000E+00  0.12525980253E-10  0.17130000000E+03  0.17130000000E+03 0.  1.
       11    1    1    2    0    0  0.16004903438E-02 -0.24578080707E-03  0.20246714684E-02  0.26424408471E-02  0.51109989000E-03 0.  1.
     -623    1    1    2    0    0 -0.72840036735E-03 -0.20543021507E-03  0.63587212684E-03  0.17130000000E+03  0.17130000000E+03 0.  1.
      622    1    1    2    0    0 -0.87208997646E-03  0.45121102214E-03  0.39973394238E+01  0.39973575563E+01  0.12000000000E-01 0.  1.
</event>
<event>
 5   0  0.3564000E+09  0.9118800E+02  0.7818608E-02  0.1180000E+00
       11   -1    0    0    0    0  0.00000000000E+00  0.00000000000E+00  0.39999999673E+01  0.40000000000E+01  0.51109989000E-03 0.  1.
     -623   -1    0    0    0    0  0.00000000000E+00  0.00000000000E+00  0.12525980253E-10  0.17130000000E+03  0.17130000000E+03 0. -1.
       11    1    1    2    0    0 -0.14878787809E-02  0.89570413376E-03  0.72215336255E+00  0.72215563166E+00  0.51109989000E-03 0.  1.
     -623    1    1    2    0    0 -0.15066348531E-03  0.75152540930E-04  0.24755602960E-04  0.17130000000E+03  0.17130000000E+03 0. -1.
      622    1    1    2    0    0  0.16385422665E-02 -0.97085667485E-03  0.32778218576E+01  0.32778443766E+01  0.12000000000E-01 0.  0.
</event>
<event>
 5   0  0.3564000E+09  0.9118800E+02  0.7818608E-02  0.1180000E+00
       11   -1    0    0    0    0  0.00000000000E+00  0.00000000000E+00  0.39999999673E+01  0.40000000000E+01  0.51109989000E-03 0. -1.
     -623   -1    0    0    0    0  0.00000000000E+00  0.00000000000E+00  0.12525980253E-10  0.17130000000E+03  0.17130000000E+03 0. -1.
       11    1    1    2    0    0 -0.11865911401E-02  0.24368531725E-02  0.12120606930E-01  0.12430470118E-01  0.51109989000E-03 0. -1.
     -623    1    1    2    0    0 -0.33892370460E-02  0.33347732874E-02  0.33475542684E-03  0.17130000007E+03  0.17130000000E+03 0. -1.
      622    1    1    2    0    0  0.45758281873E-02 -0.57716264612E-02  0.39875446064E+01  0.39875694650E+01  0.12000000000E-01 0. -1.
</event>
<event>
 5   0  0.3564000E+09  0.9118800E+02  0.7818608E-02  0.1180000E+00
       11   -1    0    0    0    0  0.00000000000E+00  0.00000000000E+00  0.39999999673E+01  0.40000000000E+01  0.51109989000E-03 0.  1.
     -623   -1    0    0    0    0  0.00000000000E+00  0.00000000000E+00  0.12525980253E-10  0.17130000000E+03  0.17130000000E+03 0. -1.
       11    1    1    2    0    0  0.84084746747E-03 -0.10255143174E-03  0.74175194408E-01  0.74181791752E-01  0.51109989000E-03 0.  1.
     -623    1    1    2    0    0 -0.21626898297E-03  0.33482961433E-03  0.24961894522E-04  0.17130000000E+03  0.17130000000E+03 0. -1.
      622    1    1    2    0    0 -0.62457848449E-03 -0.23227818259E-03  0.39257998111E+01  0.39258182078E+01  0.12000000000E-01 0.  1.
</event>
<event>
 5   0  0.3564000E+09  0.9118800E+02  0.7818608E-02  0.1180000E+00
       11   -1    0    0    0    0  0.00000000000E+00  0.00000000000E+00  0.39999999673E+01  0.40000000000E+01  0.51109989000E-03 0. -1.
     -623   -1    0    0    0    0  0.00000000000E+00  0.00000000000E+00  0.12525980253E-10  0.17130000000E+03  0.17130000000E+03 0.  1.
       11    1    1    2    0    0 -0.37283791347E-03  0.86257296591E-04  0.40059758769E-01  0.40064846738E-01  0.51109989000E-03 0. -1.
     -623    1    1    2    0    0  0.25915173717E-03  0.83210703828E-04  0.23242962810E-04  0.17130000000E+03  0.17130000000E+03 0.  1.
      622    1    1    2    0    0  0.11368617642E-03 -0.16946800038E-03  0.39599169638E+01  0.39599351512E+01  0.12000000000E-01 0. -1.
</event>
<event>
 5   0  0.3564000E+09  0.9118800E+02  0.7818608E-02  0.1180000E+00
       11   -1    0    0    0    0  0.00000000000E+00  0.00000000000E+00  0.39999999673E+01  0.40000000000E+01  0.51109989000E-03 0.  1.
     -623   -1    0    0    0    0  0.00000000000E+00  0.00000000000E+00  0.12525980253E-10  0.17130000000E+03  0.17130000000E+03 0.  1.
       11    1    1    2    0    0  0.33551911607E-02  0.11894980162E-02  0.10973009027E+01  0.10973067960E+01  0.51109989000E-03 0.  1.
     -623    1    1    2    0    0 -0.20093359238E-04  0.10607003762E-04  0.32829366602E-04  0.17130000000E+03  0.17130000000E+03 0.  1.
      622    1    1    2    0    0 -0.33350978015E-02 -0.12001050199E-02  0.29026662353E+01  0.29026932040E+01  0.12000000000E-01 0.  0.
</event>
<event>
 5   0  0.3564000E+09  0.9118800E+02  0.7818608E-02  0.1180000E+00
       11   -1    0    0    0    0  0.00000000000E+00  0.00000000000E+00  0.39999999673E+01  0.40000000000E+01  0.51109989000E-03 0.  1.
     -623   -1    0    0    0    0  0.00000000000E+00  0.00000000000E+00  0.12525980253E-10  0.17130000000E+03  0.17130000000E+03 0. -1.
       11    1    1    2    0    0 -0.15730219299E-02  0.14010994522E-02  0.10043473002E+00  0.10045811911E+00  0.51109989000E-03 0.  1.
     -623    1    1    2    0    0 -0.13207304746E-03 -0.13337863297E-02  0.42198812344E-04  0.17130000001E+03  0.17130000000E+03 0. -1.
      622    1    1    2    0    0  0.17050949775E-02 -0.67313120624E-04  0.38995230441E+01  0.38995418812E+01  0.12000000000E-01 0.  1.
</event>
<event>
 5   0  0.3564000E+09  0.9118800E+02  0.7818608E-02  0.1180000E+00
       11   -1    0    0    0    0  0.00000000000E+00  0.00000000000E+00  0.39999999673E+01  0.40000000000E+01  0.51109989000E-03 0.  1.
     -623   -1    0    0    0    0  0.00000000000E+00  0.00000000000E+00  0.12525980253E-10  0.17130000000E+03  0.17130000000E+03 0.  1.
       11    1    1    2    0    0 -0.19103729503E-03 -0.11650076878E-02  0.27905153697E+00  0.27905450228E+00  0.51109989000E-03 0.  1.
     -623    1    1    2    0    0  0.66826056589E-03 -0.36893008099E-03  0.22631129013E-04  0.17130000000E+03  0.17130000000E+03 0.  1.
      622    1    1    2    0    0 -0.47722327087E-03  0.15339377688E-02  0.37209257993E+01  0.37209454960E+01  0.12000000000E-01 0.  1.
</event>
<event>
 5   0  0.3564000E+09  0.9118800E+02  0.7818608E-02  0.1180000E+00
       11   -1    0    0    0    0  0.00000000000E+00  0.00000000000E+00  0.39999999673E+01  0.40000000000E+01  0.51109989000E-03 0. -1.
     -623   -1    0    0    0    0  0.00000000000E+00  0.00000000000E+00  0.12525980253E-10  0.17130000000E+03  0.17130000000E+03 0. -1.
       11    1    1    2    0    0  0.35098145884E-03 -0.17114639698E-03  0.88786514099E-01  0.88788843814E-01  0.51109989000E-03 0. -1.
     -623    1    1    2    0    0 -0.25999466997E-05  0.27459041186E-03  0.20722843487E-04  0.17130000000E+03  0.17130000000E+03 0. -1.
      622    1    1    2    0    0 -0.34838151214E-03 -0.10344401489E-03  0.39111927304E+01  0.39112111560E+01  0.12000000000E-01 0. -1.
</event>
<event>
 5   0  0.3564000E+09  0.9118800E+02  0.7818608E-02  0.1180000E+00
       11   -1    0    0    0    0  0.00000000000E+00  0.00000000000E+00  0.39999999673E+01  0.40000000000E+01  0.51109989000E-03 0. -1.
     -623   -1    0    0    0    0  0.00000000000E+00  0.00000000000E+00  0.12525980253E-10  0.17130000000E+03  0.17130000000E+03 0. -1.
       11    1    1    2    0    0  0.20611837468E-04  0.21369573365E-02  0.28760052235E+00  0.28760891623E+00  0.51109989000E-03 0. -1.
     -623    1    1    2    0    0  0.94675647726E-03 -0.24319015731E-02  0.27913427072E-04  0.17130000002E+03  0.17130000000E+03 0. -1.
      622    1    1    2    0    0 -0.96736831814E-03  0.29494424541E-03  0.37123715460E+01  0.37123910783E+01  0.12000000000E-01 0. -1.
</event>
<event>
 5   0  0.3564000E+09  0.9118800E+02  0.7818608E-02  0.1180000E+00
       11   -1    0    0    0    0  0.00000000000E+00  0.00000000000E+00  0.39999999673E+01  0.40000000000E+01  0.51109989000E-03 0.  1.
     -623   -1    0    0    0    0  0.00000000000E+00  0.00000000000E+00  0.12525980253E-10  0.17130000000E+03  0.17130000000E+03 0. -1.
       11    1    1    2    0    0 -0.72097772027E-03  0.45790225333E-02  0.52082940950E-01  0.52291311103E-01  0.51109989000E-03 0.  1.
     -623    1    1    2    0    0 -0.36675736154E-02 -0.58903180916E-02  0.22937377931E-03  0.17130000014E+03  0.17130000000E+03 0. -1.
      622    1    1    2    0    0  0.43885513357E-02  0.13112955583E-02  0.39476876526E+01  0.39477085482E+01  0.12000000000E-01 0.  1.
</event>
<event>
 5   0  0.3564000E+09  0.9118800E+02  0.7818608E-02  0.1180000E+00
       11   -1    0    0    0    0  0.00000000000E+00  0.00000000000E+00  0.39999999673E+01  0.40000000000E+01  0.51109989000E-03 0. -1.
     -623   -1    0    0    0    0  0.00000000000E+00  0.00000000000E+00  0.12525980253E-10  0.17130000000E+03  0.17130000000E+03 0.  1.
       11    1    1    2    0    0 -0.86443873580E-04 -0.45498805478E-03  0.20079445241E-01  0.20091287439E-01  0.51109989000E-03 0. -1.
     -623    1    1    2    0    0  0.21352411861E-05  0.32930241091E-04  0.29923744048E-04  0.17130000000E+03  0.17130000000E+03 0.  1.
      622    1    1    2    0    0  0.84308632392E-04  0.42205781365E-03  0.39798906032E+01  0.39799087174E+01  0.12000000000E-01 0. -1.
</event>
<event>
 5   0  0.3564000E+09  0.9118800E+02  0.7818608E-02  0.1180000E+00
       11   -1    0    0    0    0  0.00000000000E+00  0.00000000000E+00  0.39999999673E+01  0.40000000000E+01  0.51109989000E-03 0.  1.
     -623   -1    0    0    0    0  0.00000000000E+00  0.00000000000E+00  0.12525980253E-10  0.17130000000E+03  0.17130000000E+03 0. -1.
       11    1    1    2    0    0  0.56814288592E-02  0.40040938706E-02  0.23148358299E+00  0.23158847514E+00  0.51109989000E-03 0.  1.
     -623    1    1    2    0    0  0.18672464276E-03  0.27081397165E-02  0.13453417568E-03  0.17130000002E+03  0.17130000000E+03 0. -1.
      622    1    1    2    0    0 -0.58681535022E-02 -0.67122335900E-02  0.37683818544E+01  0.37684115075E+01  0.12000000000E-01 0.  1.
</event>
<event>
 5   0  0.3564000E+09  0.9118800E+02  0.7818608E-02  0.1180000E+00
       11   -1    0    0    0    0  0.00000000000E+00  0.00000000000E+00  0.39999999673E+01  0.40000000000E+01  0.51109989000E-03 0.  1.
     -623   -1    0    0    0    0  0.00000000000E+00  0.00000000000E+00  0.12525980253E-10  0.17130000000E+03  0.17130000000E+03 0. -1.
       11    1    1    2    0    0  0.44505325403E-02 -0.27904625519E-02  0.63997167619E+00  0.63999343862E+00  0.51109989000E-03 0.  1.
     -623    1    1    2    0    0 -0.74139939784E-02 -0.85278573471E-02  0.63901274394E-04  0.17130000037E+03  0.17130000000E+03 0. -1.
      622    1    1    2    0    0  0.29634614575E-02  0.11318319921E-01  0.33599644004E+01  0.33600061991E+01  0.12000000000E-01 0.  1.
</event>
<event>
 5   0  0.3564000E+09  0.9118800E+02  0.7818608E-02  0.1180000E+00
       11   -1    0    0    0    0  0.00000000000E+00  0.00000000000E+00  0.39999999673E+01  0.40000000000E+01  0.51109989000E-03 0.  1.
     -623   -1    0    0    0    0  0.00000000000E+00  0.00000000000E+00  0.12525980253E-10  0.17130000000E+03  0.17130000000E+03 0. -1.
       11    1    1    2    0    0  0.20478867889E-02 -0.47059188542E-03  0.72444103176E+00  0.72444425943E+00  0.51109989000E-03 0.  1.
     -623    1    1    2    0    0 -0.41017246432E-04  0.89953390243E-04  0.25813040225E-04  0.17130000000E+03  0.17130000000E+03 0. -1.
      622    1    1    2    0    0 -0.20068695425E-02  0.38063849534E-03  0.32755331152E+01  0.32755557332E+01  0.12000000000E-01 0.  0.
</event>
<event>
 5   0  0.3564000E+09  0.9118800E+02  0.7818608E-02  0.1180000E+00
       11   -1    0    0    0    0  0.00000000000E+00  0.00000000000E+00  0.39999999673E+01  0.40000000000E+01  0.51109989000E-03 0. -1.
     -623   -1    0    0    0    0  0.00000000000E+00  0.00000000000E+00  0.12525980253E-10  0.17130000000E+03  0.17130000000E+03 0.  1.
       11    1    1    2    0    0  0.18886133739E-01 -0.22171832748E-01  0.10800247536E+01  0.10804175146E+01  0.51109989000E-03 0. -1.
     -623    1    1    2    0    0 -0.79612919587E-02  0.87391479116E-02  0.46914008052E-03  0.17130000041E+03  0.17130000000E+03 0.  1.
      622    1    1    2    0    0 -0.10924841780E-01  0.13432684837E-01  0.29195060736E+01  0.29195820768E+01  0.12000000000E-01 0. -1.
</event>
<event>
 5   0  0.3564000E+09  0.9118800E+02  0.7818608E-02  0.1180000E+00
       11   -1    0    0    0    0  0.00000000000E+00  0.00000000000E+00  0.39999999673E+01  0.40000000000E+01  0.51109989000E-03 0. -1.
     -623   -1    0    0    0    0  0.00000000000E+00  0.00000000000E+00  0.12525980253E-10  0.17130000000E+03  0.17130000000E+03 0. -1.
       11    1    1    2    0    0 -0.14061305894E-03 -0.10462991241E-02  0.81223632229E-01  0.81232100609E-01  0.51109989000E-03 0. -1.
     -623    1    1    2    0    0 -0.90134507760E-04  0.20505227436E-04  0.26949984595E-04  0.17130000000E+03  0.17130000000E+03 0. -1.
      622    1    1    2    0    0  0.23074756719E-03  0.10257938966E-02  0.39187494067E+01  0.39187679209E+01  0.12000000000E-01 0. -1.
</event>
<event>
 5   0  0.3564000E+09  0.9118800E+02  0.7818608E-02  0.1180000E+00
       11   -1    0    0    0    0  0.00000000000E+00  0.00000000000E+00  0.39999999673E+01  0.40000000000E+01  0.51109989000E-03 0.  1.
     -623   -1    0    0    0    0  0.00000000000E+00  0.00000000000E+00  0.12525980253E-10  0.17130000000E+03  0.17130000000E+03 0.  1.
       11    1    1    2    0    0  0.84747972292E-03  0.14566878583E-02  0.16730882371E+00  0.16731809189E+00  0.51109989000E-03 0.  1.
     -623    1    1    2    0    0  0.47648120813E-03 -0.16173800762E-03  0.28469573797E-04  0.17130000000E+03  0.17130000000E+03 0.  1.
      622    1    1    2    0    0 -0.13239609299E-02 -0.12949498511E-02  0.38326626645E+01  0.38326818978E+01  0.12000000000E-01 0.  1.
</event>
<event>
 5   0  0.3564000E+09  0.9118800E+02  0.7818608E-02  0.1180000E+00
       11   -1    0    0    0    0  0.00000000000E+00  0.00000000000E+00  0.39999999673E+01  0.40000000000E+01  0.51109989000E-03 0.  1.
     -623   -1    0    0    0    0  0.00000000000E+00  0.00000000000E+00  0.12525980253E-10  0.17130000000E+03  0.17130000000E+03 0. -1.
       11    1    1    2    0    0  0.44035697301E-02 -0.97786639682E-02  0.19604824628E+00  0.19634202247E+00  0.51109989000E-03 0.  1.
     -623    1    1    2    0    0  0.23383224782E-03  0.64874512381E-04  0.32790382955E-03  0.17130000000E+03  0.17130000000E+03 0. -1.
      622    1    1    2    0    0 -0.46374019779E-02  0.97137894558E-02  0.38036238173E+01  0.38036579770E+01  0.12000000000E-01 0.  1.
</event>
<event>
 5   0  0.3564000E+09  0.9118800E+02  0.7818608E-02  0.1180000E+00
       11   -1    0    0    0    0  0.00000000000E+00  0.00000000000E+00  0.39999999673E+01  0.40000000000E+01  0.51109989000E-03 0.  1.
     -623   -1    0    0    0    0  0.00000000000E+00  0.00000000000E+00  0.12525980253E-10  0.17130000000E+03  0.17130000000E+03 0. -1.
       11    1    1    2    0    0 -0.17098665519E-02  0.16057345826E-02  0.55029558261E-01  0.55081898402E-01  0.51109989000E-03 0. -1.
     -623    1    1    2    0    0  0.20800152682E-05  0.45744237480E-03  0.71468676365E-04  0.17130000000E+03  0.17130000000E+03 0. -1.
      622    1    1    2    0    0  0.17077865366E-02 -0.20631769574E-02  0.39448989404E+01  0.39449181010E+01  0.12000000000E-01 0.  1.
</event>
<event>
 5   0  0.3564000E+09  0.9118800E+02  0.7818608E-02  0.1180000E+00
       11   -1    0    0    0    0  0.00000000000E+00  0.00000000000E+00  0.39999999673E+01  0.40000000000E+01  0.51109989000E-03 0.  1.
     -623   -1    0    0    0    0  0.00000000000E+00  0.00000000000E+00  0.12525980253E-10  0.17130000000E+03  0.17130000000E+03 0.  1.
       11    1    1    2    0    0  0.43181158548E-02  0.18021114651E-02  0.10335576139E+00  0.10346288399E+00  0.51109989000E-03 0.  1.
     -623    1    1    2    0    0 -0.15008141935E-02  0.29536695616E-03  0.12715785786E-03  0.17130000001E+03  0.17130000000E+03 0.  1.
      622    1    1    2    0    0 -0.28173016613E-02 -0.20974784212E-02  0.38965170481E+01  0.38965371091E+01  0.12000000000E-01 0.  1.
</event>
<event>
 5   0  0.3564000E+09  0.9118800E+02  0.7818608E-02  0.1180000E+00
       11   -1    0    0    0    0  0.00000000000E+00  0.00000000000E+00  0.39999999673E+01  0.40000000000E+01  0.51109989000E-03 0.  1.
     -623   -1    0    0    0    0  0.00000000000E+00  0.00000000000E+00  0.12525980253E-10  0.17130000000E+03  0.17130000000E+03 0. -1.
       11    1    1    2    0    0 -0.27510075714E-03  0.67939583275E-03  0.26843177509E+00  0.26843326239E+00  0.51109989000E-03 0.  1.
     -623    1    1    2    0    0 -0.23380039054E-03 -0.12394992579E-03  0.20825802063E-04  0.17130000000E+03  0.17130000000E+03 0. -1.
      622    1    1    2    0    0  0.50890114768E-03 -0.55544590696E-03  0.37315473665E+01  0.37315667374E+01  0.12000000000E-01 0.  1.
</event>
<event>
 5   0  0.3564000E+09  0.9118800E+02  0.7818608E-02  0.1180000E+00
       11   -1    0    0    0    0  0.00000000000E+00  0.00000000000E+00  0.39999999673E+01  0.40000000000E+01  0.51109989000E-03 0. -1.
     -623   -1    0    0    0    0  0.00000000000E+00  0.00000000000E+00  0.12525980253E-10  0.17130000000E+03  0.17130000000E+03 0. -1.
       11    1    1    2    0    0 -0.33479193586E-04 -0.63516601782E-03  0.29509486170E-01  0.29520764791E-01  0.51109989000E-03 0. -1.
     -623    1    1    2    0    0  0.26268698207E-03  0.17653601697E-02  0.29556624972E-04  0.17130000001E+03  0.17130000000E+03 0. -1.
      622    1    1    2    0    0 -0.22920778917E-03 -0.11301941566E-02  0.39704609351E+01  0.39704792365E+01  0.12000000000E-01 0. -1.
</event>
<event>
 5   0  0.3564000E+09  0.9118800E+02  0.7818608E-02  0.1180000E+00
       11   -1    0    0    0    0  0.00000000000E+00  0.00000000000E+00  0.39999999673E+01  0.40000000000E+01  0.51109989000E-03 0. -1.
     -623   -1    0    0    0    0  0.00000000000E+00  0.00000000000E+00  0.12525980253E-10  0.17130000000E+03  0.17130000000E+03 0. -1.
       11    1    1    2    0    0 -0.39895212006E-03  0.28783004029E-03  0.88385481563E-02  0.88669704823E-02  0.51109989000E-03 0. -1.
     -623    1    1    2    0    0  0.70779043276E-03 -0.16016817615E-03  0.46445250956E-04  0.17130000000E+03  0.17130000000E+03 0. -1.
      622    1    1    2    0    0 -0.30883831394E-03 -0.12766186386E-03  0.39911149809E+01  0.39911330350E+01  0.12000000000E-01 0. -1.
</event>
<event>
 5   0  0.3564000E+09  0.9118800E+02  0.7818608E-02  0.1180000E+00
       11   -1    0    0    0    0  0.00000000000E+00  0.00000000000E+00  0.39999999673E+01  0.40000000000E+01  0.51109989000E-03 0.  1.
     -623   -1    0    0    0    0  0.00000000000E+00  0.00000000000E+00  0.12525980253E-10  0.17130000000E+03  0.17130000000E+03 0.  1.
       11    1    1    2    0    0  0.38928769576E-02 -0.92048534276E-02  0.99048643883E+00  0.99053699100E+00  0.51109989000E-03 0.  1.
     -623    1    1    2    0    0 -0.12425778878E-03 -0.11150067143E-02  0.94501833404E-04  0.17130000000E+03  0.17130000000E+03 0.  1.
      622    1    1    2    0    0 -0.37686191688E-02  0.10319860142E-01  0.30094190267E+01  0.30094630053E+01  0.12000000000E-01 0.  1.
</event>
<event>
 5   0  0.3564000E+09  0.9118800E+02  0.7818608E-02  0.1180000E+00
       11   -1    0    0    0    0  0.00000000000E+00  0.00000000000E+00  0.39999999673E+01  0.40000000000E+01  0.51109989000E-03 0. -1.
     -623   -1    0    0    0    0  0.00000000000E+00  0.00000000000E+00  0.12525980253E-10  0.17130000000E+03  0.17130000000E+03 0.  1.
       11    1    1    2    0    0 -0.33281543118E-02 -0.30251988288E-02  0.29107205312E+00  0.29110724788E+00  0.51109989000E-03 0. -1.
     -623    1    1    2    0    0  0.10320463685E-03 -0.45886973270E-03  0.57614159969E-04  0.17130000000E+03  0.17130000000E+03 0.  1.
      622    1    1    2    0    0  0.32249496749E-02  0.34840685616E-02  0.37088703003E+01  0.37088927517E+01  0.12000000000E-01 0. -1.
</event>
<event>
 5   0  0.3564000E+09  0.9118800E+02  0.7818608E-02  0.1180000E+00
       11   -1    0    0    0    0  0.00000000000E+00  0.00000000000E+00  0.39999999673E+01  0.40000000000E+01  0.51109989000E-03 0. -1.
     -623   -1    0    0    0    0  0.00000000000E+00  0.00000000000E+00  0.12525980253E-10  0.17130000000E+03  0.17130000000E+03 0.  1.
       11    1    1    2    0    0  0.33837365143E-03 -0.13860188131E-02  0.40223453799E-01  0.40251993782E-01  0.51109989000E-03 0. -1.
     -623    1    1    2    0    0  0.66933573592E-03  0.15622055645E-03  0.47010944753E-04  0.17130000000E+03  0.17130000000E+03 0.  1.
      622    1    1    2    0    0 -0.10077093891E-02  0.12297982562E-02  0.39597295134E+01  0.39597480156E+01  0.12000000000E-01 0. -1.
</event>
<event>
 5   0  0.3564000E+09  0.9118800E+02  0.7818608E-02  0.1180000E+00
       11   -1    0    0    0    0  0.00000000000E+00  0.00000000000E+00  0.39999999673E+01  0.40000000000E+01  0.51109989000E-03 0.  1.
     -623   -1    0    0    0    0  0.00000000000E+00  0.00000000000E+00  0.12525980253E-10  0.17130000000E+03  0.17130000000E+03 0.  1.
       11    1    1    2    0    0 -0.69168867634E-04 -0.80930655826E-03  0.73672766261E+00  0.73672828766E+00  0.51109989000E-03 0.  1.
     -623    1    1    2    0    0  0.45442715442E-03  0.43947977717E-03  0.22701097806E-04  0.17130000000E+03  0.17130000000E+03 0.  1.
      622    1    1    2    0    0 -0.38525828658E-03  0.36982678128E-03  0.32632496019E+01  0.32632717094E+01  0.12000000000E-01 0.  1.
</event>
<event>
 5   0  0.3564000E+09  0.9118800E+02  0.7818608E-02  0.1180000E+00
       11   -1    0    0    0    0  0.00000000000E+00  0.00000000000E+00  0.39999999673E+01  0.40000000000E+01  0.51109989000E-03 0. -1.
     -623   -1    0    0    0    0  0.00000000000E+00  0.00000000000E+00  0.12525980253E-10  0.17130000000E+03  0.17130000000E+03 0. -1.
       11    1    1    2    0    0  0.43375939199E-02  0.14604856987E-02  0.51768157264E-01  0.51972599200E-01  0.51109989000E-03 0. -1.
     -623    1    1    2    0    0 -0.35965849981E-03  0.52038824734E-03  0.22514859671E-03  0.17130000000E+03  0.17130000000E+03 0. -1.
      622    1    1    2    0    0 -0.39779354201E-02 -0.19808739461E-02  0.39480066615E+01  0.39480273995E+01  0.12000000000E-01 0. -1.
</event>
<event>
 5   0  0.3564000E+09  0.9118800E+02  0.7818608E-02  0.1180000E+00
       11   -1    0    0    0    0  0.00000000000E+00  0.00000000000E+00  0.39999999673E+01  0.40000000000E+01  0.51109989000E-03 0. -1.
     -623   -1    0    0    0    0  0.00000000000E+00  0.00000000000E+00  0.12525980253E-10  0.17130000000E+03  0.17130000000E+03 0.  1.
       11    1    1    2    0    0  0.34161798591E-03  0.25870279636E-03  0.63110772808E-01  0.63114297083E-01  0.51109989000E-03 0. -1.
     -623    1    1    2    0    0  0.32491514537E-03 -0.53481383708E-03  0.21847495719E-04  0.17130000000E+03  0.17130000000E+03 0.  1.
      622    1    1    2    0    0 -0.66653313128E-03  0.27611104072E-03  0.39368673471E+01  0.39368857018E+01  0.12000000000E-01 0. -1.
</event>
<event>
 5   0  0.3564000E+09  0.9118800E+02  0.7818608E-02  0.1180000E+00
       11   -1    0    0    0    0  0.00000000000E+00  0.00000000000E+00  0.39999999673E+01  0.40000000000E+01  0.51109989000E-03 0.  1.
     -623   -1    0    0    0    0  0.00000000000E+00  0.00000000000E+00  0.12525980253E-10  0.17130000000E+03  0.17130000000E+03 0.  1.
       11    1    1    2    0    0 -0.10604166787E-02 -0.19246840602E-03  0.18115516305E+00  0.18115908989E+00  0.51109989000E-03 0.  1.
     -623    1    1    2    0    0  0.53863395604E-04  0.26495120214E-03  0.22881688734E-04  0.17130000000E+03  0.17130000000E+03 0.  1.
      622    1    1    2    0    0  0.10065532831E-02 -0.72482796118E-04  0.38188219226E+01  0.38188409099E+01  0.12000000000E-01 0.  1.
</event>
<event>
 5   0  0.3564000E+09  0.9118800E+02  0.7818608E-02  0.1180000E+00
       11   -1    0    0    0    0  0.00000000000E+00  0.00000000000E+00  0.39999999673E+01  0.40000000000E+01  0.51109989000E-03 0.  1.
     -623   -1    0    0    0    0  0.00000000000E+00  0.00000000000E+00  0.12525980253E-10  0.17130000000E+03  0.17130000000E+03 0. -1.
       11    1    1    2    0    0 -0.98839694680E-04  0.20962202598E-02  0.12774909008E+00  0.12776734774E+00  0.51109989000E-03 0.  1.
     -623    1    1    2    0    0 -0.81708303378E-04 -0.54777838446E-04  0.37361355251E-04  0.17130000000E+03  0.17130000000E+03 0. -1.
      622    1    1    2    0    0  0.18054799828E-03 -0.20414424212E-02  0.38722135267E+01  0.38722326630E+01  0.12000000000E-01 0.  1.
</event>
<event>
 5   0  0.3564000E+09  0.9118800E+02  0.7818608E-02  0.1180000E+00
       11   -1    0    0    0    0  0.00000000000E+00  0.00000000000E+00  0.39999999673E+01  0.40000000000E+01  0.51109989000E-03 0. -1.
     -623   -1    0    0    0    0  0.00000000000E+00  0.00000000000E+00  0.12525980253E-10  0.17130000000E+03  0.17130000000E+03 0.  1.
       11    1    1    2    0    0 -0.52510780170E-03 -0.25240662481E-02  0.12869707474E+00  0.12872390965E+00  0.51109989000E-03 0. -1.
     -623    1    1    2    0    0 -0.24741592650E-03  0.15174605626E-03  0.46205051633E-04  0.17130000000E+03  0.17130000000E+03 0.  1.
      622    1    1    2    0    0  0.77252372819E-03  0.23723201918E-02  0.38712566876E+01  0.38712760901E+01  0.12000000000E-01 0. -1.
</event>
<event>
 5   0  0.3564000E+09  0.9118800E+02  0.7818608E-02  0.1180000E+00
       11   -1    0    0    0    0  0.00000000000E+00  0.00000000000E+00  0.39999999673E+01  0.40000000000E+01  0.51109989000E-03 0. -1.
     -623   -1    0    0    0    0  0.00000000000E+00  0.00000000000E+00  0.12525980253E-10  0.17130000000E+03  0.17130000000E+03 0.  1.
       11    1    1    2    0    0 -0.62036468546E-02 -0.75012685478E-02  0.29091461295E+00  0.29107787191E+00  0.51109989000E-03 0. -1.
     -623    1    1    2    0    0  0.31164686079E-03  0.21391354708E-02  0.19120895931E-03  0.17130000001E+03  0.17130000000E+03 0.  1.
      622    1    1    2    0    0  0.58919999938E-02  0.53621330769E-02  0.37088941454E+01  0.37089221143E+01  0.12000000000E-01 0. -1.
</event>
<event>
 5   0  0.3564000E+09  0.9118800E+02  0.7818608E-02  0.1180000E+00
       11   -1    0    0    0    0  0.00000000000E+00  0.00000000000E+00  0.39999999673E+01  0.40000000000E+01  0.51109989000E-03 0.  1.
     -623   -1    0    0    0    0  0.00000000000E+00  0.00000000000E+00  0.12525980253E-10  0.17130000000E+03  0.17130000000E+03 0.  1.
       11    1    1    2    0    0  0.32629725764E-02  0.14801780000E-02  0.34587236165E-01  0.34776084357E-01  0.51109989000E-03 0.  1.
     -623    1    1    2    0    0  0.19138256027E-03 -0.38337999795E-03  0.20863047122E-03  0.17130000000E+03  0.17130000000E+03 0.  1.
      622    1    1    2    0    0 -0.34543551367E-02 -0.10967980021E-02  0.39652041007E+01  0.39652239150E+01  0.12000000000E-01 0.  1.
</event>
<event>
 5   0  0.3564000E+09  0.9118800E+02  0.7818608E-02  0.1180000E+00
       11   -1    0    0    0    0  0.00000000000E+00  0.00000000000E+00  0.39999999673E+01  0.40000000000E+01  0.51109989000E-03 0.  1.
     -623   -1    0    0    0    0  0.00000000000E+00  0.00000000000E+00  0.12525980253E-10  0.17130000000E+03  0.17130000000E+03 0. -1.
       11    1    1    2    0    0 -0.11399908694E-02 -0.29204730415E-03  0.31569232733E-01  0.31595293102E-01  0.51109989000E-03 0.  1.
     -623    1    1    2    0    0  0.32575647716E-03  0.49350745149E-03  0.44260753976E-04  0.17130000000E+03  0.17130000000E+03 0. -1.
      622    1    1    2    0    0  0.81423439227E-03 -0.20146014734E-03  0.39683864739E+01  0.39684047059E+01  0.12000000000E-01 0.  1.
</event>
<event>
 5   0  0.3564000E+09  0.9118800E+02  0.7818608E-02  0.1180000E+00
       11   -1    0    0    0    0  0.00000000000E+00  0.00000000000E+00  0.39999999673E+01  0.40000000000E+01  0.51109989000E-03 0. -1.
     -623   -1    0    0    0    0  0.00000000000E+00  0.00000000000E+00  0.12525980253E-10  0.17130000000E+03  0.17130000000E+03 0. -1.
       11    1    1    2    0    0  0.38648688352E-03  0.59465079913E-03  0.89692340796E-02  0.90117348361E-02  0.51109989000E-03 0. -1.
     -623    1    1    2    0    0  0.89067753441E-04 -0.81268686919E-03  0.60545051996E-04  0.17130000000E+03  0.17130000000E+03 0. -1.
      622    1    1    2    0    0 -0.47555463706E-03  0.21803607100E-03  0.39909701929E+01  0.39909882678E+01  0.12000000000E-01 0. -1.
</event>
<event>
 5   0  0.3564000E+09  0.9118800E+02  0.7818608E-02  0.1180000E+00
       11   -1    0    0    0    0  0.00000000000E+00  0.00000000000E+00  0.39999999673E+01  0.40000000000E+01  0.51109989000E-03 0. -1.
     -623   -1    0    0    0    0  0.00000000000E+00  0.00000000000E+00  0.12525980253E-10  0.17130000000E+03  0.17130000000E+03 0.  1.
       11    1    1    2    0    0  0.12524061786E-01 -0.27795512228E-02  0.25902748867E+00  0.25934548220E+00  0.51109989000E-03 0. -1.
     -623    1    1    2    0    0 -0.44919076103E-03 -0.71683282100E-03  0.35833447732E-03  0.17130000000E+03  0.17130000000E+03 0.  1.
      622    1    1    2    0    0 -0.12074871024E-01  0.34963840439E-02  0.37406141446E+01  0.37406545157E+01  0.12000000000E-01 0. -1.
</event>
<event>
 5   0  0.3564000E+09  0.9118800E+02  0.7818608E-02  0.1180000E+00
       11   -1    0    0    0    0  0.00000000000E+00  0.00000000000E+00  0.39999999673E+01  0.40000000000E+01  0.51109989000E-03 0. -1.
     -623   -1    0    0    0    0  0.00000000000E+00  0.00000000000E+00  0.12525980253E-10  0.17130000000E+03  0.17130000000E+03 0. -1.
       11    1    1    2    0    0  0.23695637769E-03 -0.20286959819E-03  0.21946013959E-02  0.22748192859E-02  0.51109989000E-03 0. -1.
     -623    1    1    2    0    0 -0.83765228701E-03  0.50035216862E-03  0.98254538358E-04  0.17130000000E+03  0.17130000000E+03 0. -1.
      622    1    1    2    0    0  0.60069591060E-03 -0.29748257119E-03  0.39977071175E+01  0.39977251840E+01  0.12000000000E-01 0. -1.
</event>
<event>
 5   0  0.3564000E+09  0.9118800E+02  0.7818608E-02  0.1180000E+00
       11   -1    0    0    0    0  0.00000000000E+00  0.00000000000E+00  0.39999999673E+01  0.40000000000E+01  0.51109989000E-03 0.  1.
     -623   -1    0    0    0    0  0.00000000000E+00  0.00000000000E+00  0.12525980253E-10  0.17130000000E+03  0.17130000000E+03 0. -1.
       11    1    1    2    0    0  0.61937773912E-03  0.74992075264E-03  0.39737934404E-01  0.39753121433E-01  0.51109989000E-03 0. -1.
     -623    1    1    2    0    0  0.48264953079E-04  0.11478929899E-03  0.33485846427E-04  0.17130000000E+03  0.17130000000E+03 0. -1.
      622    1    1    2    0    0 -0.66764269224E-03 -0.86471005171E-03  0.39602285500E+01  0.39602468814E+01  0.12000000000E-01 0.  1.
</event>
<event>
 5   0  0.3564000E+09  0.9118800E+02  0.7818608E-02  0.1180000E+00
       11   -1    0    0    0    0  0.00000000000E+00  0.00000000000E+00  0.39999999673E+01  0.40000000000E+01  0.51109989000E-03 0. -1.
     -623   -1    0    0    0    0  0.00000000000E+00  0.00000000000E+00  0.12525980253E-10  0.17130000000E+03  0.17130000000E+03 0. -1.
       11    1    1    2    0    0 -0.16866421064E-03  0.23888693268E-03  0.27198885559E-01  0.27205258928E-01  0.51109989000E-03 0. -1.
     -623    1    1    2    0    0  0.23867700397E-04 -0.22574433156E-03  0.24466844502E-04  0.17130000000E+03  0.17130000000E+03 0. -1.
      622    1    1    2    0    0  0.14479651013E-03 -0.13142600071E-04  0.39727766337E+01  0.39727947596E+01  0.12000000000E-01 0. -1.
</event>
<event>
 5   0  0.3564000E+09  0.9118800E+02  0.7818608E-02  0.1180000E+00
       11   -1    0    0    0    0  0.00000000000E+00  0.00000000000E+00  0.39999999673E+01  0.40000000000E+01  0.51109989000E-03 0. -1.
     -623   -1    0    0    0    0  0.00000000000E+00  0.00000000000E+00  0.12525980253E-10  0.17130000000E+03  0.17130000000E+03 0.  1.
       11    1    1    2    0    0  0.57477964081E-02 -0.91304063977E-03  0.37662090352E-01  0.38112531792E-01  0.51109989000E-03 0. -1.
     -623    1    1    2    0    0  0.58546752147E-03 -0.56120452740E-03  0.47392089933E-03  0.17130000000E+03  0.17130000000E+03 0.  1.
      622    1    1    2    0    0 -0.63332639296E-02  0.14742451672E-02  0.39618639561E+01  0.39618874656E+01  0.12000000000E-01 0. -1.
</event>
<event>
 5   0  0.3564000E+09  0.9118800E+02  0.7818608E-02  0.1180000E+00
       11   -1    0    0    0    0  0.00000000000E+00  0.00000000000E+00  0.39999999673E+01  0.40000000000E+01  0.51109989000E-03 0.  1.
     -623   -1    0    0    0    0  0.00000000000E+00  0.00000000000E+00  0.12525980253E-10  0.17130000000E+03  0.17130000000E+03 0.  1.
       11    1    1    2    0    0 -0.58026781122E-02  0.19519650060E-02  0.18027451757E-01  0.19045510751E-01  0.51109989000E-03 0. -1.
     -623    1    1    2    0    0  0.79305493537E-02 -0.11721393617E-02  0.10369483066E-02  0.17130000019E+03  0.17130000000E+03 0.  1.
      622    1    1    2    0    0 -0.21278712415E-02 -0.77982564434E-03  0.39809355673E+01  0.39809542985E+01  0.12000000000E-01 0.  1.
</event>
<event>
 5   0  0.3564000E+09  0.9118800E+02  0.7818608E-02  0.1180000E+00
       11   -1    0    0    0    0  0.00000000000E+00  0.00000000000E+00  0.39999999673E+01  0.40000000000E+01  0.51109989000E-03 0.  1.
     -623   -1    0    0    0    0  0.00000000000E+00  0.00000000000E+00  0.12525980253E-10  0.17130000000E+03  0.17130000000E+03 0. -1.
       11    1    1    2    0    0  0.26729123986E-02 -0.10023993871E-02  0.46434715393E-01  0.46525189757E-01  0.51109989000E-03 0.  1.
     -623    1    1    2    0    0 -0.27889018304E-02  0.22538469970E-03  0.10875453789E-03  0.17130000002E+03  0.17130000000E+03 0. -1.
      622    1    1    2    0    0  0.11598943192E-03  0.77701468742E-03  0.39534564976E+01  0.39534747875E+01  0.12000000000E-01 0.  1.
</event>
<event>
 5   0  0.3564000E+09  0.9118800E+02  0.7818608E-02  0.1180000E+00
       11   -1    0    0    0    0  0.00000000000E+00  0.00000000000E+00  0.39999999673E+01  0.40000000000E+01  0.51109989000E-03 0. -1.
     -623   -1    0    0    0    0  0.00000000000E+00  0.00000000000E+00  0.12525980253E-10  0.17130000000E+03  0.17130000000E+03 0. -1.
       11    1    1    2    0    0 -0.70804712408E-02  0.14044466520E-02  0.53233704259E+00  0.53238622605E+00  0.51109989000E-03 0. -1.
     -623    1    1    2    0    0 -0.17675119614E-03 -0.79442639949E-02  0.83859987412E-04  0.17130000018E+03  0.17130000000E+03 0. -1.
      622    1    1    2    0    0  0.72572224370E-02  0.65398173475E-02  0.34675790671E+01  0.34676135919E+01  0.12000000000E-01 0. -1.
</event>
<event>
 5   0  0.3564000E+09  0.9118800E+02  0.7818608E-02  0.1180000E+00
       11   -1    0    0    0    0  0.00000000000E+00  0.00000000000E+00  0.39999999673E+01  0.40000000000E+01  0.51109989000E-03 0.  1.
     -623   -1    0    0    0    0  0.00000000000E+00  0.00000000000E+00  0.12525980253E-10  0.17130000000E+03  0.17130000000E+03 0.  1.
       11    1    1    2    0    0  0.42043231511E-03 -0.61227385451E-04  0.30377383055E-01  0.30384652977E-01  0.51109989000E-03 0.  1.
     -623    1    1    2    0    0 -0.25897555499E-03 -0.31615962002E-03  0.25396812008E-04  0.17130000000E+03  0.17130000000E+03 0.  1.
      622    1    1    2    0    0 -0.16145675995E-03  0.37738700567E-03  0.39695971901E+01  0.39696153491E+01  0.12000000000E-01 0.  1.
</event>
<event>
 5   0  0.3564000E+09  0.9118800E+02  0.7818608E-02  0.1180000E+00
       11   -1    0    0    0    0  0.00000000000E+00  0.00000000000E+00  0.39999999673E+01  0.40000000000E+01  0.51109989000E-03 0.  1.
     -623   -1    0    0    0    0  0.00000000000E+00  0.00000000000E+00  0.12525980253E-10  0.17130000000E+03  0.17130000000E+03 0.  1.
       11    1    1    2    0    0  0.19032007484E-02 -0.22064981363E-02  0.31183342856E+00  0.31184746142E+00  0.51109989000E-03 0.  1.
     -623    1    1    2    0    0  0.24179947763E-02  0.20028194059E-02  0.36088108071E-04  0.17130000003E+03  0.17130000000E+03 0.  1.
      622    1    1    2    0    0 -0.43211955247E-02  0.20367873037E-03  0.36881304507E+01  0.36881525098E+01  0.12000000000E-01 0.  1.
</event>
<event>
 5   0  0.3564000E+09  0.9118800E+02  0.7818608E-02  0.1180000E+00
       11   -1    0    0    0    0  0.00000000000E+00  0.00000000000E+00  0.39999999673E+01  0.40000000000E+01  0.51109989000E-03 0. -1.
     -623   -1    0    0    0    0  0.00000000000E+00  0.00000000000E+00  0.12525980253E-10  0.17130000000E+03  0.17130000000E+03 0. -1.
       11    1    1    2    0    0  0.11493173562E-02  0.16123602160E-02  0.66099887552E-01  0.66131512841E-01  0.51109989000E-03 0. -1.
     -623    1    1    2    0    0  0.17375233785E-03  0.56855731263E-05  0.50450636973E-04  0.17130000000E+03  0.17130000000E+03 0. -1.
      622    1    1    2    0    0 -0.13230696941E-02 -0.16180457891E-02  0.39338496292E+01  0.39338684871E+01  0.12000000000E-01 0. -1.
</event>
<event>
 5   0  0.3564000E+09  0.9118800E+02  0.7818608E-02  0.1180000E+00
       11   -1    0    0    0    0  0.00000000000E+00  0.00000000000E+00  0.39999999673E+01  0.40000000000E+01  0.51109989000E-03 0.  1.
     -623   -1    0    0    0    0  0.00000000000E+00  0.00000000000E+00  0.12525980253E-10  0.17130000000E+03  0.17130000000E+03 0.  1.
       11    1    1    2    0    0  0.23991863540E-03 -0.70114095731E-03  0.15934917567E-01  0.15960325170E-01  0.51109989000E-03 0. -1.
     -623    1    1    2    0    0 -0.15789245762E-03  0.52101680256E-04  0.43500911588E-04  0.17130000000E+03  0.17130000000E+03 0.  1.
      622    1    1    2    0    0 -0.82026177777E-04  0.64903927705E-03  0.39840215489E+01  0.39840396747E+01  0.12000000000E-01 0.  1.
</event>
<event>
 5   0  0.3564000E+09  0.9118800E+02  0.7818608E-02  0.1180000E+00
       11   -1    0    0    0    0  0.00000000000E+00  0.00000000000E+00  0.39999999673E+01  0.40000000000E+01  0.51109989000E-03 0. -1.
     -623   -1    0    0    0    0  0.00000000000E+00  0.00000000000E+00  0.12525980253E-10  0.17130000000E+03  0.17130000000E+03 0.  1.
       11    1    1    2    0    0 -0.10257812860E-02  0.17556235269E-02  0.21348815337E-02  0.29922202364E-02  0.51109989000E-03 0. -1.
     -623    1    1    2    0    0 -0.31786525585E-03 -0.14056132557E-02  0.87556904599E-03  0.17130000001E+03  0.17130000000E+03 0.  1.
      622    1    1    2    0    0  0.13436465418E-02 -0.35001027125E-03  0.39969895168E+01  0.39970077715E+01  0.12000000000E-01 0. -1.
</event>
<event>
 5   0  0.3564000E+09  0.9118800E+02  0.7818608E-02  0.1180000E+00
       11   -1    0    0    0    0  0.00000000000E+00  0.00000000000E+00  0.39999999673E+01  0.40000000000E+01  0.51109989000E-03 0. -1.
     -623   -1    0    0    0    0  0.00000000000E+00  0.00000000000E+00  0.12525980253E-10  0.17130000000E+03  0.17130000000E+03 0. -1.
       11    1    1    2    0    0 -0.78469518259E-03 -0.54336570825E-03  0.99710150070E+00  0.99710208851E+00  0.51109989000E-03 0. -1.
     -623    1    1    2    0    0 -0.57170114085E-03 -0.19413720440E-03  0.24930078731E-04  0.17130000000E+03  0.17130000000E+03 0. -1.
      622    1    1    2    0    0  0.13563963243E-02  0.73750291293E-03  0.30028735423E+01  0.30028979161E+01  0.12000000000E-01 0. -1.
</event>
<event>
 5   0  0.3564000E+09  0.9118800E+02  0.7818608E-02  0.1180000E+00
       11   -1    0    0    0    0  0.00000000000E+00  0.00000000000E+00  0.39999999673E+01  0.40000000000E+01  0.51109989000E-03 0.  1.
     -623   -1    0    0    0    0  0.00000000000E+00  0.00000000000E+00  0.12525980253E-10  0.17130000000E+03  0.17130000000E+03 0.  1.
       11    1    1    2    0    0  0.34869898056E-02 -0.24702530631E-02  0.87761276677E+00  0.87762331947E+00  0.51109989000E-03 0.  1.
     -623    1    1    2    0    0 -0.30719989194E-04 -0.25671380217E-04  0.36490042685E-04  0.17130000000E+03  0.17130000000E+03 0.  1.
      622    1    1    2    0    0 -0.34562698165E-02  0.24959244433E-02  0.31223507073E+01  0.31223766773E+01  0.12000000000E-01 0.  1.
</event>
<event>
 5   0  0.3564000E+09  0.9118800E+02  0.7818608E-02  0.1180000E+00
       11   -1    0    0    0    0  0.00000000000E+00  0.00000000000E+00  0.39999999673E+01  0.40000000000E+01  0.51109989000E-03 0.  1.
     -623   -1    0    0    0    0  0.00000000000E+00  0.00000000000E+00  0.12525980253E-10  0.17130000000E+03  0.17130000000E+03 0.  1.
       11    1    1    2    0    0 -0.32001640163E-02 -0.38645331678E-02  0.79417921353E+00  0.79419522795E+00  0.51109989000E-03 0.  1.
     -623    1    1    2    0    0  0.33730015689E-04  0.16790347830E-04  0.42314036811E-04  0.17130000000E+03  0.17130000000E+03 0.  1.
      622    1    1    2    0    0  0.31664340006E-02  0.38477428200E-02  0.32057784398E+01  0.32058047720E+01  0.12000000000E-01 0.  0.
</event>
<event>
 5   0  0.3564000E+09  0.9118800E+02  0.7818608E-02  0.1180000E+00
       11   -1    0    0    0    0  0.00000000000E+00  0.00000000000E+00  0.39999999673E+01  0.40000000000E+01  0.51109989000E-03 0.  1.
     -623   -1    0    0    0    0  0.00000000000E+00  0.00000000000E+00  0.12525980253E-10  0.17130000000E+03  0.17130000000E+03 0. -1.
       11    1    1    2    0    0 -0.13754108481E-03 -0.51481476789E-03  0.15095648840E-01  0.15113695378E-01  0.51109989000E-03 0.  1.
     -623    1    1    2    0    0 -0.20417944504E-03  0.98288963692E-03  0.36127295898E-04  0.17130000000E+03  0.17130000000E+03 0. -1.
      622    1    1    2    0    0  0.34172052984E-03 -0.46807486904E-03  0.39848681912E+01  0.39848863017E+01  0.12000000000E-01 0.  1.
</event>
<event>
 5   0  0.3564000E+09  0.9118800E+02  0.7818608E-02  0.1180000E+00
       11   -1    0    0    0    0  0.00000000000E+00  0.00000000000E+00  0.39999999673E+01  0.40000000000E+01  0.51109989000E-03 0.  1.
     -623   -1    0    0    0    0  0.00000000000E+00  0.00000000000E+00  0.12525980253E-10  0.17130000000E+03  0.17130000000E+03 0. -1.
       11    1    1    2    0    0 -0.39988250249E-01 -0.14000775034E-01  0.63715765273E+00  0.63856496734E+00  0.51109989000E-03 0.  1.
     -623    1    1    2    0    0  0.42680025877E-01  0.17425279772E-01  0.14377329261E-02  0.17130000621E+03  0.17130000000E+03 0. -1.
      622    1    1    2    0    0 -0.26917756286E-02 -0.34245047387E-02  0.33614045818E+01  0.33614288235E+01  0.12000000000E-01 0.  0.
</event>
<event>
 5   0  0.3564000E+09  0.9118800E+02  0.7818608E-02  0.1180000E+00
       11   -1    0    0    0    0  0.00000000000E+00  0.00000000000E+00  0.39999999673E+01  0.40000000000E+01  0.51109989000E-03 0. -1.
     -623   -1    0    0    0    0  0.00000000000E+00  0.00000000000E+00  0.12525980253E-10  0.17130000000E+03  0.17130000000E+03 0.  1.
       11    1    1    2    0    0 -0.27912850624E-01  0.82112238529E-02  0.11770121925E+01  0.11773718673E+01  0.51109989000E-03 0. -1.
     -623    1    1    2    0    0  0.61255517970E-02  0.11214264641E-01  0.53656284898E-03  0.17130000048E+03  0.17130000000E+03 0.  1.
      622    1    1    2    0    0  0.21787298827E-01 -0.19425488494E-01  0.28224512120E+01  0.28226276552E+01  0.12000000000E-01 0. -1.
</event>
<event>
 5   0  0.3564000E+09  0.9118800E+02  0.7818608E-02  0.1180000E+00
       11   -1    0    0    0    0  0.00000000000E+00  0.00000000000E+00  0.39999999673E+01  0.40000000000E+01  0.51109989000E-03 0.  1.
     -623   -1    0    0    0    0  0.00000000000E+00  0.00000000000E+00  0.12525980253E-10  0.17130000000E+03  0.17130000000E+03 0. -1.
       11    1    1    2    0    0 -0.20674424781E-03 -0.62461493013E-04  0.64200033025E-01  0.64202430685E-01  0.51109989000E-03 0.  1.
     -623    1    1    2    0    0 -0.13710332507E-03  0.22922026972E-04  0.20673963154E-04  0.17130000000E+03  0.17130000000E+03 0. -1.
      622    1    1    2    0    0  0.34384757287E-03  0.39539466041E-04  0.39357792604E+01  0.39357975693E+01  0.12000000000E-01 0.  1.
</event>
<event>
 5   0  0.3564000E+09  0.9118800E+02  0.7818608E-02  0.1180000E+00
       11   -1    0    0    0    0  0.00000000000E+00  0.00000000000E+00  0.39999999673E+01  0.40000000000E+01  0.51109989000E-03 0.  1.
     -623   -1    0    0    0    0  0.00000000000E+00  0.00000000000E+00  0.12525980253E-10  0.17130000000E+03  0.17130000000E+03 0.  1.
       11    1    1    2    0    0  0.14762536800E-02  0.20378195824E-02  0.11832313279E+00  0.11835099074E+00  0.51109989000E-03 0.  1.
     -623    1    1    2    0    0  0.52779941451E-05  0.22334205097E-03  0.47315657320E-04  0.17130000000E+03  0.17130000000E+03 0.  1.
      622    1    1    2    0    0 -0.14815316742E-02 -0.22611616331E-02  0.38816295143E+01  0.38816490045E+01  0.12000000000E-01 0.  1.
</event>
<event>
 5   0  0.3564000E+09  0.9118800E+02  0.7818608E-02  0.1180000E+00
       11   -1    0    0    0    0  0.00000000000E+00  0.00000000000E+00  0.39999999673E+01  0.40000000000E+01  0.51109989000E-03 0. -1.
     -623   -1    0    0    0    0  0.00000000000E+00  0.00000000000E+00  0.12525980253E-10  0.17130000000E+03  0.17130000000E+03 0. -1.
       11    1    1    2    0    0 -0.15712899309E-02 -0.20957808538E-02  0.87357788439E-01  0.87398545031E-01  0.51109989000E-03 0. -1.
     -623    1    1    2    0    0 -0.17643920358E-04  0.22516571975E-03  0.59896045648E-04  0.17130000000E+03  0.17130000000E+03 0. -1.
      622    1    1    2    0    0  0.15889338512E-02  0.18706151340E-02  0.39125822840E+01  0.39126014559E+01  0.12000000000E-01 0. -1.
</event>
<event>
 5   0  0.3564000E+09  0.9118800E+02  0.7818608E-02  0.1180000E+00
       11   -1    0    0    0    0  0.00000000000E+00  0.00000000000E+00  0.39999999673E+01  0.40000000000E+01  0.51109989000E-03 0. -1.
     -623   -1    0    0    0    0  0.00000000000E+00  0.00000000000E+00  0.12525980253E-10  0.17130000000E+03  0.17130000000E+03 0. -1.
       11    1    1    2    0    0 -0.93714943165E-03 -0.37318631834E-02  0.45574300053E-01  0.45739294894E-01  0.51109989000E-03 0.  1.
     -623    1    1    2    0    0  0.14921193603E-02  0.41762614766E-02  0.18329187205E-03  0.17130000006E+03  0.17130000000E+03 0. -1.
      622    1    1    2    0    0 -0.55496992870E-03 -0.44439829311E-03  0.39542423754E+01  0.39542606476E+01  0.12000000000E-01 0. -1.
</event>
<event>
 5   0  0.3564000E+09  0.9118800E+02  0.7818608E-02  0.1180000E+00
       11   -1    0    0    0    0  0.00000000000E+00  0.00000000000E+00  0.39999999673E+01  0.40000000000E+01  0.51109989000E-03 0. -1.
     -623   -1    0    0    0    0  0.00000000000E+00  0.00000000000E+00  0.12525980253E-10  0.17130000000E+03  0.17130000000E+03 0.  1.
       11    1    1    2    0    0  0.75770973099E-02  0.20713571543E-02  0.65447558212E+00  0.65452291919E+00  0.51109989000E-03 0. -1.
     -623    1    1    2    0    0 -0.23920046574E-03  0.24233648316E-02  0.79910274090E-04  0.17130000002E+03  0.17130000000E+03 0.  1.
      622    1    1    2    0    0 -0.73378968442E-02 -0.44947219858E-02  0.33454444750E+01  0.33454770635E+01  0.12000000000E-01 0. -1.
</event>
<event>
 5   0  0.3564000E+09  0.9118800E+02  0.7818608E-02  0.1180000E+00
       11   -1    0    0    0    0  0.00000000000E+00  0.00000000000E+00  0.39999999673E+01  0.40000000000E+01  0.51109989000E-03 0.  1.
     -623   -1    0    0    0    0  0.00000000000E+00  0.00000000000E+00  0.12525980253E-10  0.17130000000E+03  0.17130000000E+03 0. -1.
       11    1    1    2    0    0  0.71472933412E-03 -0.10108158522E-02  0.36627041296E+00  0.36627286170E+00  0.51109989000E-03 0.  1.
     -623    1    1    2    0    0  0.56901900826E-02 -0.60598836756E-03  0.28330590185E-04  0.17130000010E+03  0.17130000000E+03 0. -1.
      622    1    1    2    0    0 -0.64049194184E-02  0.16168042200E-02  0.36337012250E+01  0.36337270439E+01  0.12000000000E-01 0.  0.
</event>
<event>
 5   0  0.3564000E+09  0.9118800E+02  0.7818608E-02  0.1180000E+00
       11   -1    0    0    0    0  0.00000000000E+00  0.00000000000E+00  0.39999999673E+01  0.40000000000E+01  0.51109989000E-03 0. -1.
     -623   -1    0    0    0    0  0.00000000000E+00  0.00000000000E+00  0.12525980253E-10  0.17130000000E+03  0.17130000000E+03 0. -1.
       11    1    1    2    0    0 -0.93187310168E-03  0.15145187787E-02  0.69119695052E-01  0.69144454730E-01  0.51109989000E-03 0. -1.
     -623    1    1    2    0    0  0.10700528693E-02 -0.50226354946E-03  0.43180552610E-04  0.17130000000E+03  0.17130000000E+03 0. -1.
      622    1    1    2    0    0 -0.13817976759E-03 -0.10122552292E-02  0.39308370918E+01  0.39308555412E+01  0.12000000000E-01 0. -1.
</event>
<event>
 5   0  0.3564000E+09  0.9118800E+02  0.7818608E-02  0.1180000E+00
       11   -1    0    0    0    0  0.00000000000E+00  0.00000000000E+00  0.39999999673E+01  0.40000000000E+01  0.51109989000E-03 0. -1.
     -623   -1    0    0    0    0  0.00000000000E+00  0.00000000000E+00  0.12525980253E-10  0.17130000000E+03  0.17130000000E+03 0.  1.
       11    1    1    2    0    0 -0.10389958906E-02  0.13979140604E-02  0.17139314096E-02  0.24964895664E-02  0.51109989000E-03 0. -1.
     -623    1    1    2    0    0 -0.92384061326E-03  0.47042287485E-03  0.80146031435E-03  0.17130000001E+03  0.17130000000E+03 0.  1.
      622    1    1    2    0    0  0.19628365038E-02 -0.18683369353E-02  0.39974845755E+01  0.39975035053E+01  0.12000000000E-01 0. -1.
</event>
<event>
 5   0  0.3564000E+09  0.9118800E+02  0.7818608E-02  0.1180000E+00
       11   -1    0    0    0    0  0.00000000000E+00  0.00000000000E+00  0.39999999673E+01  0.40000000000E+01  0.51109989000E-03 0.  1.
     -623   -1    0    0    0    0  0.00000000000E+00  0.00000000000E+00  0.12525980253E-10  0.17130000000E+03  0.17130000000E+03 0.  1.
       11    1    1    2    0    0  0.55958808419E-03  0.84402212490E-03  0.49918000563E-01  0.49930887389E-01  0.51109989000E-03 0. -1.
     -623    1    1    2    0    0 -0.68402699080E-04 -0.19366768569E-03  0.31165961188E-04  0.17130000000E+03  0.17130000000E+03 0.  1.
      622    1    1    2    0    0 -0.49118538506E-03 -0.65035443907E-03  0.39500508037E+01  0.39500691153E+01  0.12000000000E-01 0.  1.
</event>
<event>
 5   0  0.3564000E+09  0.9118800E+02  0.7818608E-02  0.1180000E+00
       11   -1    0    0    0    0  0.00000000000E+00  0.00000000000E+00  0.39999999673E+01  0.40000000000E+01  0.51109989000E-03 0.  1.
     -623   -1    0    0    0    0  0.00000000000E+00  0.00000000000E+00  0.12525980253E-10  0.17130000000E+03  0.17130000000E+03 0.  1.
       11    1    1    2    0    0 -0.15386630731E-03  0.15296593453E-02  0.18437952466E+00  0.18438664233E+00  0.51109989000E-03 0.  1.
     -623    1    1    2    0    0 -0.25188928114E-04  0.19495698408E-04  0.26273600736E-04  0.17130000000E+03  0.17130000000E+03 0.  1.
      622    1    1    2    0    0  0.17905523542E-03 -0.15491550437E-02  0.38155941691E+01  0.38156133577E+01  0.12000000000E-01 0.  1.
</event>
<event>
 5   0  0.3564000E+09  0.9118800E+02  0.7818608E-02  0.1180000E+00
       11   -1    0    0    0    0  0.00000000000E+00  0.00000000000E+00  0.39999999673E+01  0.40000000000E+01  0.51109989000E-03 0. -1.
     -623   -1    0    0    0    0  0.00000000000E+00  0.00000000000E+00  0.12525980253E-10  0.17130000000E+03  0.17130000000E+03 0. -1.
       11    1    1    2    0    0  0.19434817464E-01 -0.11886913506E-01  0.44958082539E+00  0.45015796186E+00  0.51109989000E-03 0. -1.
     -623    1    1    2    0    0 -0.21690031614E-01  0.78665056133E-02  0.60193442855E-03  0.17130000155E+03  0.17130000000E+03 0. -1.
      622    1    1    2    0    0  0.22552141502E-02  0.40204078930E-02  0.35498172075E+01  0.35498404833E+01  0.12000000000E-01 0.  1.
</event>
<event>
 5   0  0.3564000E+09  0.9118800E+02  0.7818608E-02  0.1180000E+00
       11   -1    0    0    0    0  0.00000000000E+00  0.00000000000E+00  0.39999999673E+01  0.40000000000E+01  0.51109989000E-03 0. -1.
     -623   -1    0    0    0    0  0.00000000000E+00  0.00000000000E+00  0.12525980253E-10  0.17130000000E+03  0.17130000000E+03 0. -1.
       11    1    1    2    0    0 -0.14182588736E-02  0.26270463218E-02  0.98785229697E+00  0.98785694039E+00  0.51109989000E-03 0. -1.
     -623    1    1    2    0    0 -0.11216402740E-03  0.59137434854E-03  0.30623406753E-04  0.17130000000E+03  0.17130000000E+03 0. -1.
      622    1    1    2    0    0  0.15304229013E-02 -0.32184206717E-02  0.30121170559E+01  0.30121430675E+01  0.12000000000E-01 0.  0.
</event>
<event>
 5   0  0.3564000E+09  0.9118800E+02  0.7818608E-02  0.1180000E+00
       11   -1    0    0    0    0  0.00000000000E+00  0.00000000000E+00  0.39999999673E+01  0.40000000000E+01  0.51109989000E-03 0. -1.
     -623   -1    0    0    0    0  0.00000000000E+00  0.00000000000E+00  0.12525980253E-10  0.17130000000E+03  0.17130000000E+03 0. -1.
       11    1    1    2    0    0  0.27366247064E-03  0.78730452827E-03  0.91673966384E-01  0.91679180146E-01  0.51109989000E-03 0. -1.
     -623    1    1    2    0    0 -0.12279498009E-02 -0.22021331273E-02  0.23994548326E-04  0.17130000002E+03  0.17130000000E+03 0. -1.
      622    1    1    2    0    0  0.95428733026E-03  0.14148285990E-02  0.39083020064E+01  0.39083208013E+01  0.12000000000E-01 0. -1.
</event>
<event>
 5   0  0.3564000E+09  0.9118800E+02  0.7818608E-02  0.1180000E+00
       11   -1    0    0    0    0  0.00000000000E+00  0.00000000000E+00  0.39999999673E+01  0.40000000000E+01  0.51109989000E-03 0. -1.
     -623   -1    0    0    0    0  0.00000000000E+00  0.00000000000E+00  0.12525980253E-10  0.17130000000E+03  0.17130000000E+03 0.  1.
       11    1    1    2    0    0 -0.75865331414E-03  0.26960077567E-04  0.42728273731E-01  0.42738072929E-01  0.51109989000E-03 0. -1.
     -623    1    1    2    0    0  0.55384984231E-04 -0.32918271661E-04  0.28023508716E-04  0.17130000000E+03  0.17130000000E+03 0.  1.
      622    1    1    2    0    0  0.70326832991E-03  0.59581940936E-05  0.39572436701E+01  0.39572619271E+01  0.12000000000E-01 0. -1.
</event>
<event>
 5   0  0.3564000E+09  0.9118800E+02  0.7818608E-02  0.1180000E+00
       11   -1    0    0    0    0  0.00000000000E+00  0.00000000000E+00  0.39999999673E+01  0.40000000000E+01  0.51109989000E-03 0.  1.
     -623   -1    0    0    0    0  0.00000000000E+00  0.00000000000E+00  0.12525980253E-10  0.17130000000E+03  0.17130000000E+03 0. -1.
       11    1    1    2    0    0  0.35713058505E-03  0.12928330684E-02  0.42129240405E-01  0.42153684039E-01  0.51109989000E-03 0.  1.
     -623    1    1    2    0    0  0.62557823594E-03 -0.80573174194E-03  0.42757765395E-04  0.17130000000E+03  0.17130000000E+03 0. -1.
      622    1    1    2    0    0 -0.98270882098E-03 -0.48710132642E-03  0.39578279692E+01  0.39578463129E+01  0.12000000000E-01 0.  1.
</event>
<event>
 5   0  0.3564000E+09  0.9118800E+02  0.7818608E-02  0.1180000E+00
       11   -1    0    0    0    0  0.00000000000E+00  0.00000000000E+00  0.39999999673E+01  0.40000000000E+01  0.51109989000E-03 0. -1.
     -623   -1    0    0    0    0  0.00000000000E+00  0.00000000000E+00  0.12525980253E-10  0.17130000000E+03  0.17130000000E+03 0. -1.
       11    1    1    2    0    0  0.11303602059E-02  0.44727027712E-03  0.11563019963E-01  0.11637973134E-01  0.51109989000E-03 0.  1.
     -623    1    1    2    0    0  0.33812830042E-03  0.21807881122E-03  0.93299435840E-04  0.17130000000E+03  0.17130000000E+03 0. -1.
      622    1    1    2    0    0 -0.14684885068E-02 -0.66534908863E-03  0.39883436532E+01  0.39883620316E+01  0.12000000000E-01 0. -1.
</event>
<event>
 5   0  0.3564000E+09  0.9118800E+02  0.7818608E-02  0.1180000E+00
       11   -1    0    0    0    0  0.00000000000E+00  0.00000000000E+00  0.39999999673E+01  0.40000000000E+01  0.51109989000E-03 0. -1.
     -623   -1    0    0    0    0  0.00000000000E+00  0.00000000000E+00  0.12525980253E-10  0.17130000000E+03  0.17130000000E+03 0. -1.
       11    1    1    2    0    0 -0.53763467850E-03 -0.18819730199E-03  0.12018475233E-01  0.12042816917E-01  0.51109989000E-03 0. -1.
     -623    1    1    2    0    0  0.49910047742E-03  0.26770659381E-04  0.42367628879E-04  0.17130000000E+03  0.17130000000E+03 0. -1.
      622    1    1    2    0    0  0.38534201524E-04  0.16142664264E-03  0.39879391209E+01  0.39879571788E+01  0.12000000000E-01 0. -1.
</event>
<event>
 5   0  0.3564000E+09  0.9118800E+02  0.7818608E-02  0.1180000E+00
       11   -1    0    0    0    0  0.00000000000E+00  0.00000000000E+00  0.39999999673E+01  0.40000000000E+01  0.51109989000E-03 0.  1.
     -623   -1    0    0    0    0  0.00000000000E+00  0.00000000000E+00  0.12525980253E-10  0.17130000000E+03  0.17130000000E+03 0.  1.
       11    1    1    2    0    0 -0.13261340269E-02  0.14391543662E-02  0.23936097159E+00  0.23936951715E+00  0.51109989000E-03 0.  1.
     -623    1    1    2    0    0  0.32200516235E-03  0.16673866962E-03  0.28136016719E-04  0.17130000000E+03  0.17130000000E+03 0.  1.
      622    1    1    2    0    0  0.10041288645E-02 -0.16058930359E-02  0.37606108597E+01  0.37606304825E+01  0.12000000000E-01 0.  1.
</event>
<event>
 5   0  0.3564000E+09  0.9118800E+02  0.7818608E-02  0.1180000E+00
       11   -1    0    0    0    0  0.00000000000E+00  0.00000000000E+00  0.39999999673E+01  0.40000000000E+01  0.51109989000E-03 0.  1.
     -623   -1    0    0    0    0  0.00000000000E+00  0.00000000000E+00  0.12525980253E-10  0.17130000000E+03  0.17130000000E+03 0. -1.
       11    1    1    2    0    0 -0.12969153171E-03  0.18348319787E-04  0.43776072437E-01  0.43779251909E-01  0.51109989000E-03 0.  1.
     -623    1    1    2    0    0 -0.32091186023E-03 -0.37864665232E-03  0.21388848204E-04  0.17130000000E+03  0.17130000000E+03 0. -1.
      622    1    1    2    0    0  0.45060339179E-03  0.36029833236E-03  0.39562025043E+01  0.39562207456E+01  0.12000000000E-01 0.  1.
</event>
<event>
 5   0  0.3564000E+09  0.9118800E+02  0.7818608E-02  0.1180000E+00
       11   -1    0    0    0    0  0.00000000000E+00  0.00000000000E+00  0.39999999673E+01  0.40000000000E+01  0.51109989000E-03 0.  1.
     -623   -1    0    0    0    0  0.00000000000E+00  0.00000000000E+00  0.12525980253E-10  0.17130000000E+03  0.17130000000E+03 0. -1.
       11    1    1    2    0    0  0.47111816906E-03  0.10801143849E-02  0.42505779411E-01  0.42525181993E-01  0.51109989000E-03 0.  1.
     -623    1    1    2    0    0 -0.22785491272E-02 -0.29419978304E-02  0.38454551778E-04  0.17130000004E+03  0.17130000000E+03 0. -1.
      622    1    1    2    0    0  0.18074309581E-02  0.18618834455E-02  0.39574557334E+01  0.39574747776E+01  0.12000000000E-01 0.  1.
</event>
<event>
 5   0  0.3564000E+09  0.9118800E+02  0.7818608E-02  0.1180000E+00
       11   -1    0    0    0    0  0.00000000000E+00  0.00000000000E+00  0.39999999673E+01  0.40000000000E+01  0.51109989000E-03 0.  1.
     -623   -1    0    0    0    0  0.00000000000E+00  0.00000000000E+00  0.12525980253E-10  0.17130000000E+03  0.17130000000E+03 0. -1.
       11    1    1    2    0    0 -0.16679386209E-02 -0.91115731161E-03  0.10489508933E+01  0.10489527397E+01  0.51109989000E-03 0.  1.
     -623    1    1    2    0    0 -0.14653412289E-05 -0.10313058083E-02  0.27326520279E-04  0.17130000000E+03  0.17130000000E+03 0. -1.
      622    1    1    2    0    0  0.16694039621E-02  0.19424631209E-02  0.29510217513E+01  0.29510472610E+01  0.12000000000E-01 0.  1.
</event>
<event>
 5   0  0.3564000E+09  0.9118800E+02  0.7818608E-02  0.1180000E+00
       11   -1    0    0    0    0  0.00000000000E+00  0.00000000000E+00  0.39999999673E+01  0.40000000000E+01  0.51109989000E-03 0.  1.
     -623   -1    0    0    0    0  0.00000000000E+00  0.00000000000E+00  0.12525980253E-10  0.17130000000E+03  0.17130000000E+03 0. -1.
       11    1    1    2    0    0 -0.66469484406E-04  0.10906501849E-03  0.10671064361E+01  0.10671065661E+01  0.51109989000E-03 0.  1.
     -623    1    1    2    0    0  0.24128667102E-02  0.40440469909E-02  0.28590497561E-04  0.17130000006E+03  0.17130000000E+03 0. -1.
      622    1    1    2    0    0 -0.23463972258E-02 -0.41531120094E-02  0.29328649408E+01  0.29328933692E+01  0.12000000000E-01 0.  1.
</event>
<event>
 5   0  0.3564000E+09  0.9118800E+02  0.7818608E-02  0.1180000E+00
       11   -1    0    0    0    0  0.00000000000E+00  0.00000000000E+00  0.39999999673E+01  0.40000000000E+01  0.51109989000E-03 0.  1.
     -623   -1    0    0    0    0  0.00000000000E+00  0.00000000000E+00  0.12525980253E-10  0.17130000000E+03  0.17130000000E+03 0.  1.
       11    1    1    2    0    0  0.22989306826E-03  0.21669901468E-03  0.10509547468E-01  0.10526709842E-01  0.51109989000E-03 0.  1.
     -623    1    1    2    0    0  0.20189215409E-03 -0.12813095314E-02  0.35347600702E-04  0.17130000000E+03  0.17130000000E+03 0.  1.
      622    1    1    2    0    0 -0.43178522236E-03  0.10646105167E-02  0.39894550723E+01  0.39894732852E+01  0.12000000000E-01 0.  1.
</event>
<event>
 5   0  0.3564000E+09  0.9118800E+02  0.7818608E-02  0.1180000E+00
       11   -1    0    0    0    0  0.00000000000E+00  0.00000000000E+00  0.39999999673E+01  0.40000000000E+01  0.51109989000E-03 0. -1.
     -623   -1    0    0    0    0  0.00000000000E+00  0.00000000000E+00  0.12525980253E-10  0.17130000000E+03  0.17130000000E+03 0.  1.
       11    1    1    2    0    0  0.73406809824E-03 -0.43311854600E-03  0.21194487329E+00  0.21194720330E+00  0.51109989000E-03 0. -1.
     -623    1    1    2    0    0 -0.40441141886E-03 -0.51707582043E-03  0.21439317051E-04  0.17130000000E+03  0.17130000000E+03 0.  1.
      622    1    1    2    0    0 -0.32965668045E-03  0.95019436505E-03  0.37880336442E+01  0.37880527848E+01  0.12000000000E-01 0. -1.
</event>
<event>
 5   0  0.3564000E+09  0.9118800E+02  0.7818608E-02  0.1180000E+00
       11   -1    0    0    0    0  0.00000000000E+00  0.00000000000E+00  0.39999999673E+01  0.40000000000E+01  0.51109989000E-03 0.  1.
     -623   -1    0    0    0    0  0.00000000000E+00  0.00000000000E+00  0.12525980253E-10  0.17130000000E+03  0.17130000000E+03 0. -1.
       11    1    1    2    0    0  0.65615081766E-02  0.10923169301E-01  0.67935242978E+00  0.67947211428E+00  0.51109989000E-03 0.  1.
     -623    1    1    2    0    0 -0.21544085192E-02  0.33447217463E-02  0.17496019548E-03  0.17130000005E+03  0.17130000000E+03 0. -1.
      622    1    1    2    0    0 -0.44070996571E-02 -0.14267891048E-01  0.33204725780E+01  0.33205278400E+01  0.12000000000E-01 0.  1.
</event>
<event>
 5   0  0.3564000E+09  0.9118800E+02  0.7818608E-02  0.1180000E+00
       11   -1    0    0    0    0  0.00000000000E+00  0.00000000000E+00  0.39999999673E+01  0.40000000000E+01  0.51109989000E-03 0.  1.
     -623   -1    0    0    0    0  0.00000000000E+00  0.00000000000E+00  0.12525980253E-10  0.17130000000E+03  0.17130000000E+03 0. -1.
       11    1    1    2    0    0  0.38586876479E-03  0.77744771191E-03  0.84781766073E-01  0.84787749111E-01  0.51109989000E-03 0.  1.
     -623    1    1    2    0    0  0.45696942938E-03  0.24464120202E-03  0.24565166152E-04  0.17130000000E+03  0.17130000000E+03 0. -1.
      622    1    1    2    0    0 -0.84283819417E-03 -0.10220889139E-02  0.39151936361E+01  0.39152122501E+01  0.12000000000E-01 0.  1.
</event>
<event>
 5   0  0.3564000E+09  0.9118800E+02  0.7818608E-02  0.1180000E+00
       11   -1    0    0    0    0  0.00000000000E+00  0.00000000000E+00  0.39999999673E+01  0.40000000000E+01  0.51109989000E-03 0.  1.
     -623   -1    0    0    0    0  0.00000000000E+00  0.00000000000E+00  0.12525980253E-10  0.17130000000E+03  0.17130000000E+03 0.  1.
       11    1    1    2    0    0  0.26637155013E-01 -0.12631088962E-01  0.79060654125E+00  0.79115614560E+00  0.51109989000E-03 0.  1.
     -623    1    1    2    0    0 -0.14056019236E-01 -0.37549760604E-02  0.63913183097E-03  0.17130000062E+03  0.17130000000E+03 0.  1.
      622    1    1    2    0    0 -0.12581135778E-01  0.16386065022E-01  0.32087542943E+01  0.32088432354E+01  0.12000000000E-01 0.  1.
</event>
<event>
 5   0  0.3564000E+09  0.9118800E+02  0.7818608E-02  0.1180000E+00
       11   -1    0    0    0    0  0.00000000000E+00  0.00000000000E+00  0.39999999673E+01  0.40000000000E+01  0.51109989000E-03 0. -1.
     -623   -1    0    0    0    0  0.00000000000E+00  0.00000000000E+00  0.12525980253E-10  0.17130000000E+03  0.17130000000E+03 0. -1.
       11    1    1    2    0    0  0.11498098225E-02  0.46737414432E-02  0.27192660167E+00  0.27196967449E+00  0.51109989000E-03 0. -1.
     -623    1    1    2    0    0 -0.38563920453E-03  0.34567980934E-03  0.65811582500E-04  0.17130000000E+03  0.17130000000E+03 0. -1.
      622    1    1    2    0    0 -0.76417061796E-03 -0.50194212526E-02  0.37280075541E+01  0.37280303247E+01  0.12000000000E-01 0. -1.
</event>
<event>
 5   0  0.3564000E+09  0.9118800E+02  0.7818608E-02  0.1180000E+00
       11   -1    0    0    0    0  0.00000000000E+00  0.00000000000E+00  0.39999999673E+01  0.40000000000E+01  0.51109989000E-03 0.  1.
     -623   -1    0    0    0    0  0.00000000000E+00  0.00000000000E+00  0.12525980253E-10  0.17130000000E+03  0.17130000000E+03 0.  1.
       11    1    1    2    0    0 -0.37358728392E-02  0.56582084616E-02  0.25036825637E+00  0.25046056993E+00  0.51109989000E-03 0.  1.
     -623    1    1    2    0    0 -0.16984864782E-03  0.13659132521E-03  0.11799559262E-03  0.17130000000E+03  0.17130000000E+03 0.  1.
      622    1    1    2    0    0  0.39057214870E-02 -0.57947997868E-02  0.37495137154E+01  0.37495394299E+01  0.12000000000E-01 0.  1.
</event>
<event>
 5   0  0.3564000E+09  0.9118800E+02  0.7818608E-02  0.1180000E+00
       11   -1    0    0    0    0  0.00000000000E+00  0.00000000000E+00  0.39999999673E+01  0.40000000000E+01  0.51109989000E-03 0. -1.
     -623   -1    0    0    0    0  0.00000000000E+00  0.00000000000E+00  0.12525980253E-10  0.17130000000E+03  0.17130000000E+03 0. -1.
       11    1    1    2    0    0 -0.42402606042E-02  0.15993355952E-02  0.99483091347E-01  0.99587571370E-01  0.51109989000E-03 0. -1.
     -623    1    1    2    0    0  0.16572782886E-03  0.16371596001E-04  0.12537001064E-03  0.17130000000E+03  0.17130000000E+03 0. -1.
      622    1    1    2    0    0  0.40745327754E-02 -0.16157071913E-02  0.39003915064E+01  0.39004124289E+01  0.12000000000E-01 0. -1.
</event>
<event>
 5   0  0.3564000E+09  0.9118800E+02  0.7818608E-02  0.1180000E+00
       11   -1    0    0    0    0  0.00000000000E+00  0.00000000000E+00  0.39999999673E+01  0.40000000000E+01  0.51109989000E-03 0.  1.
     -623   -1    0    0    0    0  0.00000000000E+00  0.00000000000E+00  0.12525980253E-10  0.17130000000E+03  0.17130000000E+03 0.  1.
       11    1    1    2    0    0 -0.19337613158E-02  0.64374309716E-02  0.11205395326E+00  0.11225653484E+00  0.51109989000E-03 0.  1.
     -623    1    1    2    0    0 -0.66205345297E-03  0.65287278577E-04  0.22737509512E-03  0.17130000000E+03  0.17130000000E+03 0.  1.
      622    1    1    2    0    0  0.25958147687E-02 -0.65027182502E-02  0.38877186384E+01  0.38877434631E+01  0.12000000000E-01 0.  1.
</event>
<event>
 5   0  0.3564000E+09  0.9118800E+02  0.7818608E-02  0.1180000E+00
       11   -1    0    0    0    0  0.00000000000E+00  0.00000000000E+00  0.39999999673E+01  0.40000000000E+01  0.51109989000E-03 0. -1.
     -623   -1    0    0    0    0  0.00000000000E+00  0.00000000000E+00  0.12525980253E-10  0.17130000000E+03  0.17130000000E+03 0. -1.
       11    1    1    2    0    0 -0.21277371555E-02 -0.36087285814E-03  0.16593140830E+00  0.16594622918E+00  0.51109989000E-03 0. -1.
     -623    1    1    2    0    0  0.30787383306E-04 -0.31223947805E-03  0.34200182384E-04  0.17130000000E+03  0.17130000000E+03 0. -1.
      622    1    1    2    0    0  0.20969497721E-02  0.67311233691E-03  0.38340343680E+01  0.38340537797E+01  0.12000000000E-01 0. -1.
</event>
<event>
 5   0  0.3564000E+09  0.9118800E+02  0.7818608E-02  0.1180000E+00
       11   -1    0    0    0    0  0.00000000000E+00  0.00000000000E+00  0.39999999673E+01  0.40000000000E+01  0.51109989000E-03 0.  1.
     -623   -1    0    0    0    0  0.00000000000E+00  0.00000000000E+00  0.12525980253E-10  0.17130000000E+03  0.17130000000E+03 0. -1.
       11    1    1    2    0    0  0.21358872841E-02 -0.59872809448E-03  0.26834963529E+00  0.26835928990E+00  0.51109989000E-03 0.  1.
     -623    1    1    2    0    0 -0.21704242842E-03  0.20648571921E-03  0.29430703242E-04  0.17130000000E+03  0.17130000000E+03 0. -1.
      622    1    1    2    0    0 -0.19188448554E-02  0.39224237503E-03  0.37316209059E+01  0.37316407144E+01  0.12000000000E-01 0.  1.
</event>
<event>
 5   0  0.3564000E+09  0.9118800E+02  0.7818608E-02  0.1180000E+00
       11   -1    0    0    0    0  0.00000000000E+00  0.00000000000E+00  0.39999999673E+01  0.40000000000E+01  0.51109989000E-03 0. -1.
     -623   -1    0    0    0    0  0.00000000000E+00  0.00000000000E+00  0.12525980253E-10  0.17130000000E+03  0.17130000000E+03 0.  1.
       11    1    1    2    0    0  0.10797514247E-02  0.13713184758E-02  0.26971034444E+00  0.26971647613E+00  0.51109989000E-03 0. -1.
     -623    1    1    2    0    0 -0.11863096060E-02 -0.78893137104E-02  0.31282435044E-04  0.17130000019E+03  0.17130000000E+03 0.  1.
      622    1    1    2    0    0  0.10655818133E-03  0.65179952346E-02  0.37302583405E+01  0.37302833381E+01  0.12000000000E-01 0. -1.
</event>
<event>
 5   0  0.3564000E+09  0.9118800E+02  0.7818608E-02  0.1180000E+00
       11   -1    0    0    0    0  0.00000000000E+00  0.00000000000E+00  0.39999999673E+01  0.40000000000E+01  0.51109989000E-03 0. -1.
     -623   -1    0    0    0    0  0.00000000000E+00  0.00000000000E+00  0.12525980253E-10  0.17130000000E+03  0.17130000000E+03 0. -1.
       11    1    1    2    0    0  0.12049297131E-01 -0.10524195189E-02  0.68768037289E+00  0.68778692167E+00  0.51109989000E-03 0. -1.
     -623    1    1    2    0    0 -0.26605489832E-02 -0.30487336559E-02  0.14414754843E-03  0.17130000005E+03  0.17130000000E+03 0. -1.
      622    1    1    2    0    0 -0.93887481479E-02  0.41011531748E-02  0.33121754469E+01  0.33122130305E+01  0.12000000000E-01 0. -1.
</event>
<event>
 5   0  0.3564000E+09  0.9118800E+02  0.7818608E-02  0.1180000E+00
       11   -1    0    0    0    0  0.00000000000E+00  0.00000000000E+00  0.39999999673E+01  0.40000000000E+01  0.51109989000E-03 0. -1.
     -623   -1    0    0    0    0  0.00000000000E+00  0.00000000000E+00  0.12525980253E-10  0.17130000000E+03  0.17130000000E+03 0. -1.
       11    1    1    2    0    0 -0.25918230040E-03  0.19782155436E-02  0.36070968125E-01  0.36129717364E-01  0.51109989000E-03 0. -1.
     -623    1    1    2    0    0 -0.42043289009E-02 -0.25126279856E-03  0.79821777237E-04  0.17130000005E+03  0.17130000000E+03 0. -1.
      622    1    1    2    0    0  0.44635112032E-02 -0.17269527449E-02  0.39638491793E+01  0.39638702326E+01  0.12000000000E-01 0. -1.
</event>
<event>
 5   0  0.3564000E+09  0.9118800E+02  0.7818608E-02  0.1180000E+00
       11   -1    0    0    0    0  0.00000000000E+00  0.00000000000E+00  0.39999999673E+01  0.40000000000E+01  0.51109989000E-03 0. -1.
     -623   -1    0    0    0    0  0.00000000000E+00  0.00000000000E+00  0.12525980253E-10  0.17130000000E+03  0.17130000000E+03 0.  1.
       11    1    1    2    0    0  0.83931077326E-02 -0.72445818630E-02  0.81886280823E+00  0.81893802461E+00  0.51109989000E-03 0. -1.
     -623    1    1    2    0    0 -0.48511888731E-04 -0.37026389480E-03  0.11787747039E-03  0.17130000000E+03  0.17130000000E+03 0.  1.
      622    1    1    2    0    0 -0.83445958439E-02  0.76148457578E-02  0.31810192817E+01  0.31810619749E+01  0.12000000000E-01 0. -1.
</event>
<event>
 5   0  0.3564000E+09  0.9118800E+02  0.7818608E-02  0.1180000E+00
       11   -1    0    0    0    0  0.00000000000E+00  0.00000000000E+00  0.39999999673E+01  0.40000000000E+01  0.51109989000E-03 0. -1.
     -623   -1    0    0    0    0  0.00000000000E+00  0.00000000000E+00  0.12525980253E-10  0.17130000000E+03  0.17130000000E+03 0. -1.
       11    1    1    2    0    0 -0.11229059653E-02 -0.51978970048E-03  0.10823868596E+00  0.10824696513E+00  0.51109989000E-03 0. -1.
     -623    1    1    2    0    0 -0.23778070544E-03 -0.52809470064E-03  0.27127162118E-04  0.17130000000E+03  0.17130000000E+03 0. -1.
      622    1    1    2    0    0  0.13606866708E-02  0.10478844011E-02  0.38917341542E+01  0.38917530339E+01  0.12000000000E-01 0. -1.
</event>
<event>
 5   0  0.3564000E+09  0.9118800E+02  0.7818608E-02  0.1180000E+00
       11   -1    0    0    0    0  0.00000000000E+00  0.00000000000E+00  0.39999999673E+01  0.40000000000E+01  0.51109989000E-03 0. -1.
     -623   -1    0    0    0    0  0.00000000000E+00  0.00000000000E+00  0.12525980253E-10  0.17130000000E+03  0.17130000000E+03 0.  1.
       11    1    1    2    0    0 -0.47245822985E-03  0.11328930118E-02  0.10670740053E-01  0.10753258986E-01  0.51109989000E-03 0. -1.
     -623    1    1    2    0    0 -0.40240664433E-03 -0.42694222295E-04  0.10078026079E-03  0.17130000000E+03  0.17130000000E+03 0.  1.
      622    1    1    2    0    0  0.87486487418E-03 -0.10901987895E-02  0.39892284470E+01  0.39892467405E+01  0.12000000000E-01 0. -1.
</event>
<event>
 5   0  0.3564000E+09  0.9118800E+02  0.7818608E-02  0.1180000E+00
       11   -1    0    0    0    0  0.00000000000E+00  0.00000000000E+00  0.39999999673E+01  0.40000000000E+01  0.51109989000E-03 0. -1.
     -623   -1    0    0    0    0  0.00000000000E+00  0.00000000000E+00  0.12525980253E-10  0.17130000000E+03  0.17130000000E+03 0. -1.
       11    1    1    2    0    0 -0.13895286980E-02 -0.29423319617E-03  0.54814678628E-01  0.54835459143E-01  0.51109989000E-03 0. -1.
     -623    1    1    2    0    0  0.21159147248E-02 -0.19421885774E-02  0.39722951179E-04  0.17130000002E+03  0.17130000000E+03 0. -1.
      622    1    1    2    0    0 -0.72638602559E-03  0.22364217725E-02  0.39451455635E+01  0.39451645145E+01  0.12000000000E-01 0. -1.
</event>
<event>
 5   0  0.3564000E+09  0.9118800E+02  0.7818608E-02  0.1180000E+00
       11   -1    0    0    0    0  0.00000000000E+00  0.00000000000E+00  0.39999999673E+01  0.40000000000E+01  0.51109989000E-03 0. -1.
     -623   -1    0    0    0    0  0.00000000000E+00  0.00000000000E+00  0.12525980253E-10  0.17130000000E+03  0.17130000000E+03 0. -1.
       11    1    1    2    0    0  0.22418199200E-02 -0.16125634975E-02  0.68261661781E+00  0.68262239507E+00  0.51109989000E-03 0. -1.
     -623    1    1    2    0    0  0.33879263431E-03  0.69248723884E-03  0.28581654536E-04  0.17130000000E+03  0.17130000000E+03 0. -1.
      622    1    1    2    0    0 -0.25806125543E-02  0.92007625863E-03  0.33173547679E+01  0.33173776032E+01  0.12000000000E-01 0. -1.
</event>
<event>
 5   0  0.3564000E+09  0.9118800E+02  0.7818608E-02  0.1180000E+00
       11   -1    0    0    0    0  0.00000000000E+00  0.00000000000E+00  0.39999999673E+01  0.40000000000E+01  0.51109989000E-03 0.  1.
     -623   -1    0    0    0    0  0.00000000000E+00  0.00000000000E+00  0.12525980253E-10  0.17130000000E+03  0.17130000000E+03 0. -1.
       11    1    1    2    0    0 -0.44652425543E-02  0.75367370361E-02  0.39822879859E+00  0.39832546748E+00  0.51109989000E-03 0.  1.
     -623    1    1    2    0    0  0.11764070770E-04  0.78962035446E-03  0.12900677902E-03  0.17130000000E+03  0.17130000000E+03 0. -1.
      622    1    1    2    0    0  0.44534784835E-02 -0.83263573905E-02  0.36016421620E+01  0.36016745306E+01  0.12000000000E-01 0.  1.
</event>
<event>
 5   0  0.3564000E+09  0.9118800E+02  0.7818608E-02  0.1180000E+00
       11   -1    0    0    0    0  0.00000000000E+00  0.00000000000E+00  0.39999999673E+01  0.40000000000E+01  0.51109989000E-03 0.  1.
     -623   -1    0    0    0    0  0.00000000000E+00  0.00000000000E+00  0.12525980253E-10  0.17130000000E+03  0.17130000000E+03 0.  1.
       11    1    1    2    0    0 -0.31084335589E-02  0.44947683896E-03  0.84631088101E-01  0.84690889031E-01  0.51109989000E-03 0.  1.
     -623    1    1    2    0    0  0.35308647584E-03 -0.93018801137E-03  0.79159628110E-04  0.17130000000E+03  0.17130000000E+03 0.  1.
      622    1    1    2    0    0  0.27553470830E-02  0.48071117279E-03  0.39152897213E+01  0.39153091097E+01  0.12000000000E-01 0.  1.
</event>
<event>
 5   0  0.3564000E+09  0.9118800E+02  0.7818608E-02  0.1180000E+00
       11   -1    0    0    0    0  0.00000000000E+00  0.00000000000E+00  0.39999999673E+01  0.40000000000E+01  0.51109989000E-03 0.  1.
     -623   -1    0    0    0    0  0.00000000000E+00  0.00000000000E+00  0.12525980253E-10  0.17130000000E+03  0.17130000000E+03 0. -1.
       11    1    1    2    0    0 -0.15622653993E-02 -0.74694278038E-03  0.25918448227E-01  0.25981258198E-01  0.51109989000E-03 0.  1.
     -623    1    1    2    0    0  0.54787547006E-03  0.75133506160E-03  0.81027062133E-04  0.17130000000E+03  0.17130000000E+03 0. -1.
      622    1    1    2    0    0  0.10143899292E-02 -0.43922812206E-05  0.39740004921E+01  0.39740187393E+01  0.12000000000E-01 0.  1.
</event>
<event>
 5   0  0.3564000E+09  0.9118800E+02  0.7818608E-02  0.1180000E+00
       11   -1    0    0    0    0  0.00000000000E+00  0.00000000000E+00  0.39999999673E+01  0.40000000000E+01  0.51109989000E-03 0.  1.
     -623   -1    0    0    0    0  0.00000000000E+00  0.00000000000E+00  0.12525980253E-10  0.17130000000E+03  0.17130000000E+03 0.  1.
       11    1    1    2    0    0 -0.72344949042E-02 -0.43965656170E-03  0.75724304302E+00  0.75727790053E+00  0.51109989000E-03 0.  1.
     -623    1    1    2    0    0  0.70742888593E-03 -0.19556835920E-02  0.64494867494E-04  0.17130000001E+03  0.17130000000E+03 0.  1.
      622    1    1    2    0    0  0.65270660183E-02  0.23953401537E-02  0.32426924295E+01  0.32427220868E+01  0.12000000000E-01 0.  1.
</event>
<event>
 5   0  0.3564000E+09  0.9118800E+02  0.7818608E-02  0.1180000E+00
       11   -1    0    0    0    0  0.00000000000E+00  0.00000000000E+00  0.39999999673E+01  0.40000000000E+01  0.51109989000E-03 0. -1.
     -623   -1    0    0    0    0  0.00000000000E+00  0.00000000000E+00  0.12525980253E-10  0.17130000000E+03  0.17130000000E+03 0.  1.
       11    1    1    2    0    0 -0.88953547273E-03  0.59387433404E-03  0.17261091890E+00  0.17261498922E+00  0.51109989000E-03 0. -1.
     -623    1    1    2    0    0 -0.29731525506E-03 -0.11220805753E-03  0.23064152438E-04  0.17130000000E+03  0.17130000000E+03 0.  1.
      622    1    1    2    0    0  0.11868507278E-02 -0.48166627651E-03  0.38273659843E+01  0.38273850105E+01  0.12000000000E-01 0. -1.
</event>
<event>
 5   0  0.3564000E+09  0.9118800E+02  0.7818608E-02  0.1180000E+00
       11   -1    0    0    0    0  0.00000000000E+00  0.00000000000E+00  0.39999999673E+01  0.40000000000E+01  0.51109989000E-03 0.  1.
     -623   -1    0    0    0    0  0.00000000000E+00  0.00000000000E+00  0.12525980253E-10  0.17130000000E+03  0.17130000000E+03 0. -1.
       11    1    1    2    0    0 -0.67679650418E-03 -0.80578737498E-03  0.67776063294E-02  0.68778279606E-02  0.51109989000E-03 0.  1.
     -623    1    1    2    0    0  0.10999531817E-02  0.11110523459E-02  0.11826130063E-03  0.17130000001E+03  0.17130000000E+03 0. -1.
      622    1    1    2    0    0 -0.42315667771E-03 -0.30526497109E-03  0.39931041005E+01  0.39931221656E+01  0.12000000000E-01 0.  1.
</event>
<event>
 5   0  0.3564000E+09  0.9118800E+02  0.7818608E-02  0.1180000E+00
       11   -1    0    0    0    0  0.00000000000E+00  0.00000000000E+00  0.39999999673E+01  0.40000000000E+01  0.51109989000E-03 0.  1.
     -623   -1    0    0    0    0  0.00000000000E+00  0.00000000000E+00  0.12525980253E-10  0.17130000000E+03  0.17130000000E+03 0. -1.
       11    1    1    2    0    0 -0.66610631261E-03 -0.69630823076E-03  0.11824289404E-02  0.16086963880E-02  0.51109989000E-03 0.  1.
     -623    1    1    2    0    0  0.53707563814E-04  0.70893595552E-03  0.44429105963E-03  0.17130000000E+03  0.17130000000E+03 0. -1.
      622    1    1    2    0    0  0.61239874879E-03 -0.12627724761E-04  0.39983732474E+01  0.39983913016E+01  0.12000000000E-01 0.  1.
</event>
<event>
 5   0  0.3564000E+09  0.9118800E+02  0.7818608E-02  0.1180000E+00
       11   -1    0    0    0    0  0.00000000000E+00  0.00000000000E+00  0.39999999673E+01  0.40000000000E+01  0.51109989000E-03 0. -1.
     -623   -1    0    0    0    0  0.00000000000E+00  0.00000000000E+00  0.12525980253E-10  0.17130000000E+03  0.17130000000E+03 0.  1.
       11    1    1    2    0    0 -0.16795466626E-03 -0.95212746247E-03  0.81515285968E-01  0.81522621541E-01  0.51109989000E-03 0. -1.
     -623    1    1    2    0    0  0.20135971334E-03 -0.24769809536E-03  0.25861593583E-04  0.17130000000E+03  0.17130000000E+03 0.  1.
      622    1    1    2    0    0 -0.33405047083E-04  0.11998255578E-02  0.39184588198E+01  0.39184773782E+01  0.12000000000E-01 0. -1.
</event>
<event>
 5   0  0.3564000E+09  0.9118800E+02  0.7818608E-02  0.1180000E+00
       11   -1    0    0    0    0  0.00000000000E+00  0.00000000000E+00  0.39999999673E+01  0.40000000000E+01  0.51109989000E-03 0.  1.
     -623   -1    0    0    0    0  0.00000000000E+00  0.00000000000E+00  0.12525980253E-10  0.17130000000E+03  0.17130000000E+03 0. -1.
       11    1    1    2    0    0  0.13102209203E-02  0.27660216498E-02  0.84991754902E+00  0.84992321353E+00  0.51109989000E-03 0.  1.
     -623    1    1    2    0    0 -0.19638560023E-02 -0.73185016591E-03  0.29225973186E-04  0.17130000001E+03  0.17130000000E+03 0. -1.
      622    1    1    2    0    0  0.65363508195E-03 -0.20341714839E-02  0.31500531924E+01  0.31500767736E+01  0.12000000000E-01 0.  1.
</event>
<event>
 5   0  0.3564000E+09  0.9118800E+02  0.7818608E-02  0.1180000E+00
       11   -1    0    0    0    0  0.00000000000E+00  0.00000000000E+00  0.39999999673E+01  0.40000000000E+01  0.51109989000E-03 0.  1.
     -623   -1    0    0    0    0  0.00000000000E+00  0.00000000000E+00  0.12525980253E-10  0.17130000000E+03  0.17130000000E+03 0.  1.
       11    1    1    2    0    0  0.49958278317E-03 -0.15403886600E-02  0.22053044544E+00  0.22053698322E+00  0.51109989000E-03 0.  1.
     -623    1    1    2    0    0  0.10946752079E-02  0.21325876900E-03  0.26128396182E-04  0.17130000000E+03  0.17130000000E+03 0.  1.
      622    1    1    2    0    0 -0.15942579910E-02  0.13271298910E-02  0.37794433935E+01  0.37794630132E+01  0.12000000000E-01 0.  1.
</event>
<event>
 5   0  0.3564000E+09  0.9118800E+02  0.7818608E-02  0.1180000E+00
       11   -1    0    0    0    0  0.00000000000E+00  0.00000000000E+00  0.39999999673E+01  0.40000000000E+01  0.51109989000E-03 0.  1.
     -623   -1    0    0    0    0  0.00000000000E+00  0.00000000000E+00  0.12525980253E-10  0.17130000000E+03  0.17130000000E+03 0.  1.
       11    1    1    2    0    0 -0.79548219327E-02 -0.20129736929E-02  0.10104018752E+01  0.10104353230E+01  0.51109989000E-03 0.  1.
     -623    1    1    2    0    0 -0.11641607701E-03 -0.18185807147E-03  0.69200321307E-04  0.17130000000E+03  0.17130000000E+03 0.  1.
      622    1    1    2    0    0  0.80712380099E-02  0.21948317646E-02  0.29895288963E+01  0.29895646814E+01  0.12000000000E-01 0.  1.
</event>
<event>
 5   0  0.3564000E+09  0.9118800E+02  0.7818608E-02  0.1180000E+00
       11   -1    0    0    0    0  0.00000000000E+00  0.00000000000E+00  0.39999999673E+01  0.40000000000E+01  0.51109989000E-03 0. -1.
     -623   -1    0    0    0    0  0.00000000000E+00  0.00000000000E+00  0.12525980253E-10  0.17130000000E+03  0.17130000000E+03 0.  1.
       11    1    1    2    0    0  0.21177437153E-01  0.22799244165E-01  0.91510918581E+00  0.91563823236E+00  0.51109989000E-03 0. -1.
     -623    1    1    2    0    0 -0.27082953471E-01 -0.25421169696E-01  0.56315374546E-03  0.17130000403E+03  0.17130000000E+03 0.  1.
      622    1    1    2    0    0  0.59055163183E-02  0.26219255319E-02  0.30843276278E+01  0.30843577395E+01  0.12000000000E-01 0. -1.
</event>
<event>
 5   0  0.3564000E+09  0.9118800E+02  0.7818608E-02  0.1180000E+00
       11   -1    0    0    0    0  0.00000000000E+00  0.00000000000E+00  0.39999999673E+01  0.40000000000E+01  0.51109989000E-03 0. -1.
     -623   -1    0    0    0    0  0.00000000000E+00  0.00000000000E+00  0.12525980253E-10  0.17130000000E+03  0.17130000000E+03 0. -1.
       11    1    1    2    0    0  0.59881383856E-02  0.11657138424E-01  0.97984279653E+00  0.97993056581E+00  0.51109989000E-03 0. -1.
     -623    1    1    2    0    0  0.23271364063E-03  0.25341760207E-03  0.14147144481E-03  0.17130000000E+03  0.17130000000E+03 0. -1.
      622    1    1    2    0    0 -0.62208520262E-02 -0.11910556026E-01  0.30200156980E+01  0.30200694324E+01  0.12000000000E-01 0. -1.
</event>
<event>
 5   0  0.3564000E+09  0.9118800E+02  0.7818608E-02  0.1180000E+00
       11   -1    0    0    0    0  0.00000000000E+00  0.00000000000E+00  0.39999999673E+01  0.40000000000E+01  0.51109989000E-03 0. -1.
     -623   -1    0    0    0    0  0.00000000000E+00  0.00000000000E+00  0.12525980253E-10  0.17130000000E+03  0.17130000000E+03 0. -1.
       11    1    1    2    0    0  0.16828187201E-02 -0.13732698659E-02  0.30436678220E+00  0.30437496132E+00  0.51109989000E-03 0. -1.
     -623    1    1    2    0    0 -0.52427244459E-04 -0.51820433323E-04  0.28263455783E-04  0.17130000000E+03  0.17130000000E+03 0. -1.
      622    1    1    2    0    0 -0.16303914754E-02  0.14250902995E-02  0.36956049419E+01  0.36956250589E+01  0.12000000000E-01 0. -1.
</event>
<event>
 5   0  0.3564000E+09  0.9118800E+02  0.7818608E-02  0.1180000E+00
       11   -1    0    0    0    0  0.00000000000E+00  0.00000000000E+00  0.39999999673E+01  0.40000000000E+01  0.51109989000E-03 0.  1.
     -623   -1    0    0    0    0  0.00000000000E+00  0.00000000000E+00  0.12525980253E-10  0.17130000000E+03  0.17130000000E+03 0. -1.
       11    1    1    2    0    0  0.96358643569E-03 -0.21842070607E-03  0.89711938601E-01  0.89718835018E-01  0.51109989000E-03 0.  1.
     -623    1    1    2    0    0  0.21178052202E-04  0.40160470605E-04  0.25404892170E-04  0.17130000000E+03  0.17130000000E+03 0. -1.
      622    1    1    2    0    0 -0.98476448784E-03  0.17826023555E-03  0.39102626154E+01  0.39102811565E+01  0.12000000000E-01 0.  1.
</event>
<event>
 5   0  0.3564000E+09  0.9118800E+02  0.7818608E-02  0.1180000E+00
       11   -1    0    0    0    0  0.00000000000E+00  0.00000000000E+00  0.39999999673E+01  0.40000000000E+01  0.51109989000E-03 0. -1.
     -623   -1    0    0    0    0  0.00000000000E+00  0.00000000000E+00  0.12525980253E-10  0.17130000000E+03  0.17130000000E+03 0.  1.
       11    1    1    2    0    0 -0.25096237461E-03  0.87849688337E-04  0.32057803898E-02  0.32571384199E-02  0.51109989000E-03 0.  1.
     -623    1    1    2    0    0 -0.71426624739E-04  0.59613012816E-03  0.69412694680E-04  0.17130000000E+03  0.17130000000E+03 0.  1.
      622    1    1    2    0    0  0.32238899948E-03 -0.68397981759E-03  0.39967247816E+01  0.39967428678E+01  0.12000000000E-01 0. -1.
</event>
<event>
 5   0  0.3564000E+09  0.9118800E+02  0.7818608E-02  0.1180000E+00
       11   -1    0    0    0    0  0.00000000000E+00  0.00000000000E+00  0.39999999673E+01  0.40000000000E+01  0.51109989000E-03 0. -1.
     -623   -1    0    0    0    0  0.00000000000E+00  0.00000000000E+00  0.12525980253E-10  0.17130000000E+03  0.17130000000E+03 0. -1.
       11    1    1    2    0    0 -0.71714416756E-03 -0.62617606762E-02  0.11862386623E+01  0.11862555160E+01  0.51109989000E-03 0. -1.
     -623    1    1    2    0    0  0.27093716073E-02  0.10452395967E-03  0.49873473294E-04  0.17130000002E+03  0.17130000000E+03 0. -1.
      622    1    1    2    0    0 -0.19922274458E-02  0.61572367163E-02  0.28137114406E+01  0.28137444716E+01  0.12000000000E-01 0.  1.
</event>
<event>
 5   0  0.3564000E+09  0.9118800E+02  0.7818608E-02  0.1180000E+00
       11   -1    0    0    0    0  0.00000000000E+00  0.00000000000E+00  0.39999999673E+01  0.40000000000E+01  0.51109989000E-03 0. -1.
     -623   -1    0    0    0    0  0.00000000000E+00  0.00000000000E+00  0.12525980253E-10  0.17130000000E+03  0.17130000000E+03 0.  1.
       11    1    1    2    0    0  0.11529219964E-02  0.18819406864E-02  0.26558348234E+00  0.26559314420E+00  0.51109989000E-03 0. -1.
     -623    1    1    2    0    0  0.31955441704E-03  0.11328188655E-03  0.29733083390E-04  0.17130000000E+03  0.17130000000E+03 0.  1.
      622    1    1    2    0    0 -0.14724764140E-02 -0.19952225731E-02  0.37343867587E+01  0.37344068622E+01  0.12000000000E-01 0. -1.
</event>
<event>
 5   0  0.3564000E+09  0.9118800E+02  0.7818608E-02  0.1180000E+00
       11   -1    0    0    0    0  0.00000000000E+00  0.00000000000E+00  0.39999999673E+01  0.40000000000E+01  0.51109989000E-03 0.  1.
     -623   -1    0    0    0    0  0.00000000000E+00  0.00000000000E+00  0.12525980253E-10  0.17130000000E+03  0.17130000000E+03 0.  1.
       11    1    1    2    0    0 -0.10862132862E-02 -0.10715730747E-02  0.92953268993E-02  0.94335811127E-02  0.51109989000E-03 0.  1.
     -623    1    1    2    0    0  0.11719924343E-02  0.15921471851E-02  0.15631052221E-03  0.17130000001E+03  0.17130000000E+03 0.  1.
      622    1    1    2    0    0 -0.85779148034E-04 -0.52057411042E-03  0.39905483299E+01  0.39905664074E+01  0.12000000000E-01 0.  1.
</event>
<event>
 5   0  0.3564000E+09  0.9118800E+02  0.7818608E-02  0.1180000E+00
       11   -1    0    0    0    0  0.00000000000E+00  0.00000000000E+00  0.39999999673E+01  0.40000000000E+01  0.51109989000E-03 0.  1.
     -623   -1    0    0    0    0  0.00000000000E+00  0.00000000000E+00  0.12525980253E-10  0.17130000000E+03  0.17130000000E+03 0.  1.
       11    1    1    2    0    0  0.54570697599E-03  0.53134077558E-02  0.11672370171E+01  0.11672493502E+01  0.51109989000E-03 0.  1.
     -623    1    1    2    0    0 -0.30351174213E-04  0.96227905373E-03  0.44718760823E-04  0.17130000000E+03  0.17130000000E+03 0.  1.
      622    1    1    2    0    0 -0.51535580175E-03 -0.62756868106E-02  0.28327182358E+01  0.28327506515E+01  0.12000000000E-01 0.  0.
</event>
<event>
 5   0  0.3564000E+09  0.9118800E+02  0.7818608E-02  0.1180000E+00
       11   -1    0    0    0    0  0.00000000000E+00  0.00000000000E+00  0.39999999673E+01  0.40000000000E+01  0.51109989000E-03 0. -1.
     -623   -1    0    0    0    0  0.00000000000E+00  0.00000000000E+00  0.12525980253E-10  0.17130000000E+03  0.17130000000E+03 0.  1.
       11    1    1    2    0    0  0.22718816485E-03 -0.26380940384E-03  0.18575228528E-03  0.64570649125E-03  0.51109989000E-03 0. -1.
     -623    1    1    2    0    0 -0.91709814385E-03 -0.36266158364E-03  0.47803659157E-03  0.17130000000E+03  0.17130000000E+03 0.  1.
      622    1    1    2    0    0  0.68990997913E-03  0.62647098753E-03  0.39993361790E+01  0.39993542906E+01  0.12000000000E-01 0. -1.
</event>
<event>
 5   0  0.3564000E+09  0.9118800E+02  0.7818608E-02  0.1180000E+00
       11   -1    0    0    0    0  0.00000000000E+00  0.00000000000E+00  0.39999999673E+01  0.40000000000E+01  0.51109989000E-03 0.  1.
     -623   -1    0    0    0    0  0.00000000000E+00  0.00000000000E+00  0.12525980253E-10  0.17130000000E+03  0.17130000000E+03 0.  1.
       11    1    1    2    0    0  0.42030160673E-02  0.10700019284E-02  0.47887875484E-01  0.48086589499E-01  0.51109989000E-03 0.  1.
     -623    1    1    2    0    0 -0.37413604069E-03  0.20082852955E-02  0.21996650993E-03  0.17130000001E+03  0.17130000000E+03 0.  1.
      622    1    1    2    0    0 -0.38288800267E-02 -0.30782872235E-02  0.39518921244E+01  0.39519133972E+01  0.12000000000E-01 0.  1.
</event>
<event>
 5   0  0.3564000E+09  0.9118800E+02  0.7818608E-02  0.1180000E+00
       11   -1    0    0    0    0  0.00000000000E+00  0.00000000000E+00  0.39999999673E+01  0.40000000000E+01  0.51109989000E-03 0. -1.
     -623   -1    0    0    0    0  0.00000000000E+00  0.00000000000E+00  0.12525980253E-10  0.17130000000E+03  0.17130000000E+03 0.  1.
       11    1    1    2    0    0  0.65962561190E-03  0.39807651895E-03  0.38605635725E-01  0.38616704983E-01  0.51109989000E-03 0. -1.
     -623    1    1    2    0    0 -0.23335424429E-03 -0.34775588542E-04  0.29251887369E-04  0.17130000000E+03  0.17130000000E+03 0.  1.
      622    1    1    2    0    0 -0.42627136773E-03 -0.36330093043E-03  0.39613650778E+01  0.39613832930E+01  0.12000000000E-01 0. -1.
</event>
<event>
 5   0  0.3564000E+09  0.9118800E+02  0.7818608E-02  0.1180000E+00
       11   -1    0    0    0    0  0.00000000000E+00  0.00000000000E+00  0.39999999673E+01  0.40000000000E+01  0.51109989000E-03 0. -1.
     -623   -1    0    0    0    0  0.00000000000E+00  0.00000000000E+00  0.12525980253E-10  0.17130000000E+03  0.17130000000E+03 0. -1.
       11    1    1    2    0    0  0.16891293807E-02 -0.15811232495E-03  0.12595099669E+00  0.12596345878E+00  0.51109989000E-03 0. -1.
     -623    1    1    2    0    0 -0.11744008723E-04  0.43903038368E-04  0.31379593190E-04  0.17130000000E+03  0.17130000000E+03 0. -1.
      622    1    1    2    0    0 -0.16773853720E-02  0.11420928659E-03  0.38740175902E+01  0.38740365404E+01  0.12000000000E-01 0. -1.
</event>
<event>
 5   0  0.3564000E+09  0.9118800E+02  0.7818608E-02  0.1180000E+00
       11   -1    0    0    0    0  0.00000000000E+00  0.00000000000E+00  0.39999999673E+01  0.40000000000E+01  0.51109989000E-03 0.  1.
     -623   -1    0    0    0    0  0.00000000000E+00  0.00000000000E+00  0.12525980253E-10  0.17130000000E+03  0.17130000000E+03 0.  1.
       11    1    1    2    0    0  0.11880136060E-02  0.12120590623E-02  0.63275183918E-01  0.63300004632E-01  0.51109989000E-03 0. -1.
     -623    1    1    2    0    0  0.22184134182E-04  0.83942653770E-04  0.43476920746E-04  0.17130000000E+03  0.17130000000E+03 0.  1.
      622    1    1    2    0    0 -0.12101977402E-02 -0.12960017162E-02  0.39366813132E+01  0.39367000020E+01  0.12000000000E-01 0.  1.
</event>
<event>
 5   0  0.3564000E+09  0.9118800E+02  0.7818608E-02  0.1180000E+00
       11   -1    0    0    0    0  0.00000000000E+00  0.00000000000E+00  0.39999999673E+01  0.40000000000E+01  0.51109989000E-03 0. -1.
     -623   -1    0    0    0    0  0.00000000000E+00  0.00000000000E+00  0.12525980253E-10  0.17130000000E+03  0.17130000000E+03 0.  1.
       11    1    1    2    0    0  0.12083352961E-02  0.61568300404E-02  0.11742224430E+01  0.11742393169E+01  0.51109989000E-03 0. -1.
     -623    1    1    2    0    0 -0.91729054965E-03 -0.34673383116E-03  0.48312283800E-04  0.17130000000E+03  0.17130000000E+03 0.  1.
      622    1    1    2    0    0 -0.29104474475E-03 -0.58100962086E-02  0.28257292195E+01  0.28257606877E+01  0.12000000000E-01 0.  0.
</event>
<event>
 5   0  0.3564000E+09  0.9118800E+02  0.7818608E-02  0.1180000E+00
       11   -1    0    0    0    0  0.00000000000E+00  0.00000000000E+00  0.39999999673E+01  0.40000000000E+01  0.51109989000E-03 0. -1.
     -623   -1    0    0    0    0  0.00000000000E+00  0.00000000000E+00  0.12525980253E-10  0.17130000000E+03  0.17130000000E+03 0. -1.
       11    1    1    2    0    0 -0.19568631724E-02  0.11460065660E-02  0.27952011296E-01  0.28048508037E-01  0.51109989000E-03 0. -1.
     -623    1    1    2    0    0 -0.74909918452E-04 -0.20120937992E-03  0.11522345302E-03  0.17130000000E+03  0.17130000000E+03 0. -1.
      622    1    1    2    0    0  0.20317730908E-02 -0.94479718602E-03  0.39719327348E+01  0.39719514940E+01  0.12000000000E-01 0. -1.
</event>
<event>
 5   0  0.3564000E+09  0.9118800E+02  0.7818608E-02  0.1180000E+00
       11   -1    0    0    0    0  0.00000000000E+00  0.00000000000E+00  0.39999999673E+01  0.40000000000E+01  0.51109989000E-03 0.  1.
     -623   -1    0    0    0    0  0.00000000000E+00  0.00000000000E+00  0.12525980253E-10  0.17130000000E+03  0.17130000000E+03 0. -1.
       11    1    1    2    0    0 -0.56625157705E-03 -0.11519424768E-03  0.18984120467E-01  0.18999788514E-01  0.51109989000E-03 0.  1.
     -623    1    1    2    0    0 -0.12381143760E-04  0.69445561553E-04  0.33763687490E-04  0.17130000000E+03  0.17130000000E+03 0. -1.
      622    1    1    2    0    0  0.57863272079E-03  0.45748686215E-04  0.39809820780E+01  0.39810002062E+01  0.12000000000E-01 0.  1.
</event>
<event>
 5   0  0.3564000E+09  0.9118800E+02  0.7818608E-02  0.1180000E+00
       11   -1    0    0    0    0  0.00000000000E+00  0.00000000000E+00  0.39999999673E+01  0.40000000000E+01  0.51109989000E-03 0. -1.
     -623   -1    0    0    0    0  0.00000000000E+00  0.00000000000E+00  0.12525980253E-10  0.17130000000E+03  0.17130000000E+03 0.  1.
       11    1    1    2    0    0  0.16043608649E-03  0.23704370438E-03  0.25401973077E-02  0.26068668772E-02  0.51109989000E-03 0. -1.
     -623    1    1    2    0    0  0.18173373314E-03 -0.57011547980E-04  0.84667533949E-04  0.17130000000E+03  0.17130000000E+03 0.  1.
      622    1    1    2    0    0 -0.34216981977E-03 -0.18003215636E-03  0.39973751057E+01  0.39973931361E+01  0.12000000000E-01 0. -1.
</event>
<event>
 5   0  0.3564000E+09  0.9118800E+02  0.7818608E-02  0.1180000E+00
       11   -1    0    0    0    0  0.00000000000E+00  0.00000000000E+00  0.39999999673E+01  0.40000000000E+01  0.51109989000E-03 0. -1.
     -623   -1    0    0    0    0  0.00000000000E+00  0.00000000000E+00  0.12525980253E-10  0.17130000000E+03  0.17130000000E+03 0. -1.
       11    1    1    2    0    0  0.11401134754E-02  0.13923902933E-02  0.36786106484E+00  0.36786582181E+00  0.51109989000E-03 0. -1.
     -623    1    1    2    0    0 -0.26919468467E-03 -0.39225274764E-02  0.25578229023E-04  0.17130000005E+03  0.17130000000E+03 0. -1.
      622    1    1    2    0    0 -0.87091879077E-03  0.25301371831E-02  0.36321133243E+01  0.36321341331E+01  0.12000000000E-01 0. -1.
</event>
<event>
 5   0  0.3564000E+09  0.9118800E+02  0.7818608E-02  0.1180000E+00
       11   -1    0    0    0    0  0.00000000000E+00  0.00000000000E+00  0.39999999673E+01  0.40000000000E+01  0.51109989000E-03 0.  1.
     -623   -1    0    0    0    0  0.00000000000E+00  0.00000000000E+00  0.12525980253E-10  0.17130000000E+03  0.17130000000E+03 0. -1.
       11    1    1    2    0    0  0.44699726629E-03 -0.48003431552E-02  0.18785749961E+00  0.18792004811E+00  0.51109989000E-03 0.  1.
     -623    1    1    2    0    0 -0.27203766619E-03  0.10911192987E-01  0.86652937998E-04  0.17130000035E+03  0.17130000000E+03 0. -1.
      622    1    1    2    0    0 -0.17495960011E-03 -0.61108498322E-02  0.38120558148E+01  0.38120796041E+01  0.12000000000E-01 0.  1.
</event>
<event>
 5   0  0.3564000E+09  0.9118800E+02  0.7818608E-02  0.1180000E+00
       11   -1    0    0    0    0  0.00000000000E+00  0.00000000000E+00  0.39999999673E+01  0.40000000000E+01  0.51109989000E-03 0. -1.
     -623   -1    0    0    0    0  0.00000000000E+00  0.00000000000E+00  0.12525980253E-10  0.17130000000E+03  0.17130000000E+03 0. -1.
       11    1    1    2    0    0  0.24280079327E-02 -0.28545474567E-02  0.70812108832E+00  0.70813118884E+00  0.51109989000E-03 0. -1.
     -623    1    1    2    0    0 -0.69201734928E-03 -0.46059336259E-03  0.34069096238E-04  0.17130000000E+03  0.17130000000E+03 0. -1.
      622    1    1    2    0    0 -0.17359905838E-02  0.33151408190E-02  0.32918448076E+01  0.32918688068E+01  0.12000000000E-01 0. -1.
</event>
<event>
 5   0  0.3564000E+09  0.9118800E+02  0.7818608E-02  0.1180000E+00
       11   -1    0    0    0    0  0.00000000000E+00  0.00000000000E+00  0.39999999673E+01  0.40000000000E+01  0.51109989000E-03 0.  1.
     -623   -1    0    0    0    0  0.00000000000E+00  0.00000000000E+00  0.12525980253E-10  0.17130000000E+03  0.17130000000E+03 0. -1.
       11    1    1    2    0    0  0.42098366696E-03  0.39670260634E-02  0.17684870317E+00  0.17689443054E+00  0.51109989000E-03 0.  1.
     -623    1    1    2    0    0 -0.24976616499E-03  0.22641360917E-04  0.66613421417E-04  0.17130000000E+03  0.17130000000E+03 0. -1.
      622    1    1    2    0    0 -0.17121750197E-03 -0.39896674243E-02  0.38230846508E+01  0.38231055693E+01  0.12000000000E-01 0.  1.
</event>
<event>
 5   0  0.3564000E+09  0.9118800E+02  0.7818608E-02  0.1180000E+00
       11   -1    0    0    0    0  0.00000000000E+00  0.00000000000E+00  0.39999999673E+01  0.40000000000E+01  0.51109989000E-03 0.  1.
     -623   -1    0    0    0    0  0.00000000000E+00  0.00000000000E+00  0.12525980253E-10  0.17130000000E+03  0.17130000000E+03 0.  1.
       11    1    1    2    0    0  0.37089547769E-02 -0.23093557393E-03  0.29367677378E+00  0.29370072924E+00  0.51109989000E-03 0.  1.
     -623    1    1    2    0    0 -0.22691948543E-04 -0.64556821126E-04  0.45194232027E-04  0.17130000000E+03  0.17130000000E+03 0.  1.
      622    1    1    2    0    0 -0.36862628283E-02  0.29549239505E-03  0.37062779993E+01  0.37062992707E+01  0.12000000000E-01 0.  1.
</event>
<event>
 5   0  0.3564000E+09  0.9118800E+02  0.7818608E-02  0.1180000E+00
       11   -1    0    0    0    0  0.00000000000E+00  0.00000000000E+00  0.39999999673E+01  0.40000000000E+01  0.51109989000E-03 0.  1.
     -623   -1    0    0    0    0  0.00000000000E+00  0.00000000000E+00  0.12525980253E-10  0.17130000000E+03  0.17130000000E+03 0. -1.
       11    1    1    2    0    0  0.94972547123E-02 -0.89456319793E-02  0.46043000613E+00  0.46061510391E+00  0.51109989000E-03 0.  1.
     -623    1    1    2    0    0 -0.13345663084E-03 -0.15893267625E-04  0.22913960909E-03  0.17130000000E+03  0.17130000000E+03 0. -1.
      622    1    1    2    0    0 -0.93637980815E-02  0.89615252469E-02  0.35393408216E+01  0.35393848959E+01  0.12000000000E-01 0.  1.
</event>
<event>
 5   0  0.3564000E+09  0.9118800E+02  0.7818608E-02  0.1180000E+00
       11   -1    0    0    0    0  0.00000000000E+00  0.00000000000E+00  0.39999999673E+01  0.40000000000E+01  0.51109989000E-03 0.  1.
     -623   -1    0    0    0    0  0.00000000000E+00  0.00000000000E+00  0.12525980253E-10  0.17130000000E+03  0.17130000000E+03 0.  1.
       11    1    1    2    0    0 -0.18902348863E-02 -0.97586174205E-03  0.79009519154E+00  0.79009822061E+00  0.51109989000E-03 0.  1.
     -623    1    1    2    0    0 -0.15383034260E-03  0.66802474675E-04  0.26206746493E-04  0.17130000000E+03  0.17130000000E+03 0.  1.
      622    1    1    2    0    0  0.20440652289E-02  0.90905926738E-03  0.32098785691E+01  0.32099017793E+01  0.12000000000E-01 0.  1.
</event>
<event>
 5   0  0.3564000E+09  0.9118800E+02  0.7818608E-02  0.1180000E+00
       11   -1    0    0    0    0  0.00000000000E+00  0.00000000000E+00  0.39999999673E+01  0.40000000000E+01  0.51109989000E-03 0. -1.
     -623   -1    0    0    0    0  0.00000000000E+00  0.00000000000E+00  0.12525980253E-10  0.17130000000E+03  0.17130000000E+03 0. -1.
       11    1    1    2    0    0  0.63286540425E-03 -0.30577104340E-02  0.49875206935E-01  0.49975469984E-01  0.51109989000E-03 0. -1.
     -623    1    1    2    0    0 -0.10428926425E-02  0.10628791610E-02  0.11898969464E-03  0.17130000001E+03  0.17130000000E+03 0. -1.
      622    1    1    2    0    0  0.41002723823E-03  0.19948312730E-02  0.39500057707E+01  0.39500245235E+01  0.12000000000E-01 0. -1.
</event>
<event>
 5   0  0.3564000E+09  0.9118800E+02  0.7818608E-02  0.1180000E+00
       11   -1    0    0    0    0  0.00000000000E+00  0.00000000000E+00  0.39999999673E+01  0.40000000000E+01  0.51109989000E-03 0.  1.
     -623   -1    0    0    0    0  0.00000000000E+00  0.00000000000E+00  0.12525980253E-10  0.17130000000E+03  0.17130000000E+03 0. -1.
       11    1    1    2    0    0 -0.20792217829E-02 -0.19355088041E-02  0.32822351344E+00  0.32823620360E+00  0.51109989000E-03 0.  1.
     -623    1    1    2    0    0  0.64108585491E-03  0.42331550700E-03  0.32861439089E-04  0.17130000000E+03  0.17130000000E+03 0. -1.
      622    1    1    2    0    0  0.14381359280E-02  0.15121932971E-02  0.36717435925E+01  0.36717637947E+01  0.12000000000E-01 0.  1.
</event>
<event>
 5   0  0.3564000E+09  0.9118800E+02  0.7818608E-02  0.1180000E+00
       11   -1    0    0    0    0  0.00000000000E+00  0.00000000000E+00  0.39999999673E+01  0.40000000000E+01  0.51109989000E-03 0.  1.
     -623   -1    0    0    0    0  0.00000000000E+00  0.00000000000E+00  0.12525980253E-10  0.17130000000E+03  0.17130000000E+03 0. -1.
       11    1    1    2    0    0 -0.83406319268E-02 -0.24941470485E-01  0.37167442636E+00  0.37260405731E+00  0.51109989000E-03 0.  1.
     -623    1    1    2    0    0 -0.68729434266E-02  0.32963320051E-01  0.99353361074E-03  0.17130000331E+03  0.17130000000E+03 0. -1.
      622    1    1    2    0    0  0.15213575354E-01 -0.80218495692E-02  0.36273320077E+01  0.36273926307E+01  0.12000000000E-01 0.  1.
</event>
<event>
 5   0  0.3564000E+09  0.9118800E+02  0.7818608E-02  0.1180000E+00
       11   -1    0    0    0    0  0.00000000000E+00  0.00000000000E+00  0.39999999673E+01  0.40000000000E+01  0.51109989000E-03 0. -1.
     -623   -1    0    0    0    0  0.00000000000E+00  0.00000000000E+00  0.12525980253E-10  0.17130000000E+03  0.17130000000E+03 0.  1.
       11    1    1    2    0    0  0.89149268905E-03 -0.69183039569E-03  0.33452951019E-02  0.35672974262E-02  0.51109989000E-03 0. -1.
     -623    1    1    2    0    0 -0.87279432262E-03  0.12500374084E-02  0.24003177268E-03  0.17130000001E+03  0.17130000000E+03 0.  1.
      622    1    1    2    0    0 -0.18698366102E-04 -0.55820701315E-03  0.39964146420E+01  0.39964326971E+01  0.12000000000E-01 0. -1.
</event>
<event>
 5   0  0.3564000E+09  0.9118800E+02  0.7818608E-02  0.1180000E+00
       11   -1    0    0    0    0  0.00000000000E+00  0.00000000000E+00  0.39999999673E+01  0.40000000000E+01  0.51109989000E-03 0.  1.
     -623   -1    0    0    0    0  0.00000000000E+00  0.00000000000E+00  0.12525980253E-10  0.17130000000E+03  0.17130000000E+03 0.  1.
       11    1    1    2    0    0  0.13835229082E-02  0.50939828601E-02  0.28526458137E-01  0.29015217235E-01  0.51109989000E-03 0.  1.
     -623    1    1    2    0    0  0.34713032504E-02 -0.50118835507E-02  0.50993582914E-03  0.17130000011E+03  0.17130000000E+03 0.  1.
      622    1    1    2    0    0 -0.48548261586E-02 -0.82099309473E-04  0.39709635734E+01  0.39709846735E+01  0.12000000000E-01 0.  1.
</event>
<event>
 5   0  0.3564000E+09  0.9118800E+02  0.7818608E-02  0.1180000E+00
       11   -1    0    0    0    0  0.00000000000E+00  0.00000000000E+00  0.39999999673E+01  0.40000000000E+01  0.51109989000E-03 0.  1.
     -623   -1    0    0    0    0  0.00000000000E+00  0.00000000000E+00  0.12525980253E-10  0.17130000000E+03  0.17130000000E+03 0. -1.
       11    1    1    2    0    0 -0.81907780483E-03  0.96162177680E-03  0.51275620140E-02  0.53055367492E-02  0.51109989000E-03 0. -1.
     -623    1    1    2    0    0  0.74773380053E-04 -0.16759468924E-03  0.19611450874E-03  0.17130000000E+03  0.17130000000E+03 0. -1.
      622    1    1    2    0    0  0.74430442477E-03 -0.79402708756E-03  0.39946762910E+01  0.39946944632E+01  0.12000000000E-01 0.  1.
</event>
<event>
 5   0  0.3564000E+09  0.9118800E+02  0.7818608E-02  0.1180000E+00
       11   -1    0    0    0    0  0.00000000000E+00  0.00000000000E+00  0.39999999673E+01  0.40000000000E+01  0.51109989000E-03 0. -1.
     -623   -1    0    0    0    0  0.00000000000E+00  0.00000000000E+00  0.12525980253E-10  0.17130000000E+03  0.17130000000E+03 0.  1.
       11    1    1    2    0    0  0.47450096555E-03  0.27317565521E-02  0.13961949919E+00  0.13964796247E+00  0.51109989000E-03 0. -1.
     -623    1    1    2    0    0 -0.24535124789E-03 -0.15060360247E-03  0.47951808241E-04  0.17130000000E+03  0.17130000000E+03 0.  1.
      622    1    1    2    0    0 -0.22914971704E-03 -0.25811529493E-02  0.38603325265E+01  0.38603520474E+01  0.12000000000E-01 0. -1.
</event>
<event>
 5   0  0.3564000E+09  0.9118800E+02  0.7818608E-02  0.1180000E+00
       11   -1    0    0    0    0  0.00000000000E+00  0.00000000000E+00  0.39999999673E+01  0.40000000000E+01  0.51109989000E-03 0.  1.
     -623   -1    0    0    0    0  0.00000000000E+00  0.00000000000E+00  0.12525980253E-10  0.17130000000E+03  0.17130000000E+03 0.  1.
       11    1    1    2    0    0  0.53215106461E-03 -0.27571519730E-03  0.42107184221E-01  0.42114550808E-01  0.51109989000E-03 0.  1.
     -623    1    1    2    0    0  0.29149610445E-03  0.46257370402E-03  0.25616507946E-04  0.17130000000E+03  0.17130000000E+03 0.  1.
      622    1    1    2    0    0 -0.82364716994E-03 -0.18685850811E-03  0.39578671787E+01  0.39578854604E+01  0.12000000000E-01 0.  1.
</event>
<event>
 5   0  0.3564000E+09  0.9118800E+02  0.7818608E-02  0.1180000E+00
       11   -1    0    0    0    0  0.00000000000E+00  0.00000000000E+00  0.39999999673E+01  0.40000000000E+01  0.51109989000E-03 0.  1.
     -623   -1    0    0    0    0  0.00000000000E+00  0.00000000000E+00  0.12525980253E-10  0.17130000000E+03  0.17130000000E+03 0. -1.
       11    1    1    2    0    0 -0.72866452476E-02  0.21364610060E-01  0.61974324053E+00  0.62015440591E+00  0.51109989000E-03 0.  1.
     -623    1    1    2    0    0  0.27580581522E-02  0.12402964375E-03  0.50380468252E-03  0.17130000002E+03  0.17130000000E+03 0. -1.
      622    1    1    2    0    0  0.45285870949E-02 -0.21488639703E-01  0.33797529229E+01  0.33798455719E+01  0.12000000000E-01 0.  1.
</event>
<event>
 5   0  0.3564000E+09  0.9118800E+02  0.7818608E-02  0.1180000E+00
       11   -1    0    0    0    0  0.00000000000E+00  0.00000000000E+00  0.39999999673E+01  0.40000000000E+01  0.51109989000E-03 0. -1.
     -623   -1    0    0    0    0  0.00000000000E+00  0.00000000000E+00  0.12525980253E-10  0.17130000000E+03  0.17130000000E+03 0.  1.
       11    1    1    2    0    0  0.75864062540E-03 -0.37977027576E-03  0.72428709038E-01  0.72435480788E-01  0.51109989000E-03 0. -1.
     -623    1    1    2    0    0 -0.28124454080E-02  0.92140831352E-03  0.25671031259E-04  0.17130000003E+03  0.17130000000E+03 0.  1.
      622    1    1    2    0    0  0.20538047918E-02 -0.54163804078E-03  0.39275456004E+01  0.39275645068E+01  0.12000000000E-01 0. -1.
</event>
<event>
 5   0  0.3564000E+09  0.9118800E+02  0.7818608E-02  0.1180000E+00
       11   -1    0    0    0    0  0.00000000000E+00  0.00000000000E+00  0.39999999673E+01  0.40000000000E+01  0.51109989000E-03 0.  1.
     -623   -1    0    0    0    0  0.00000000000E+00  0.00000000000E+00  0.12525980253E-10  0.17130000000E+03  0.17130000000E+03 0. -1.
       11    1    1    2    0    0  0.51447396735E-02 -0.57265813942E-02  0.73616142456E-01  0.74019319991E-01  0.51109989000E-03 0.  1.
     -623    1    1    2    0    0 -0.55462057968E-02  0.48898798549E-02  0.42175408770E-03  0.17130000016E+03  0.17130000000E+03 0. -1.
      622    1    1    2    0    0  0.40146612325E-03  0.83670153927E-03  0.39259620708E+01  0.39259805199E+01  0.12000000000E-01 0.  1.
</event>
<event>
 5   0  0.3564000E+09  0.9118800E+02  0.7818608E-02  0.1180000E+00
       11   -1    0    0    0    0  0.00000000000E+00  0.00000000000E+00  0.39999999673E+01  0.40000000000E+01  0.51109989000E-03 0. -1.
     -623   -1    0    0    0    0  0.00000000000E+00  0.00000000000E+00  0.12525980253E-10  0.17130000000E+03  0.17130000000E+03 0.  1.
       11    1    1    2    0    0  0.24677113841E-04  0.30499710349E-02  0.73266882073E+00  0.73267534762E+00  0.51109989000E-03 0. -1.
     -623    1    1    2    0    0 -0.56824905804E-03 -0.21482429792E-03  0.29807082587E-04  0.17130000000E+03  0.17130000000E+03 0.  1.
      622    1    1    2    0    0  0.54357194420E-03 -0.28351467370E-02  0.32673013396E+01  0.32673246513E+01  0.12000000000E-01 0. -1.
</event>
<event>
 5   0  0.3564000E+09  0.9118800E+02  0.7818608E-02  0.1180000E+00
       11   -1    0    0    0    0  0.00000000000E+00  0.00000000000E+00  0.39999999673E+01  0.40000000000E+01  0.51109989000E-03 0.  1.
     -623   -1    0    0    0    0  0.00000000000E+00  0.00000000000E+00  0.12525980253E-10  0.17130000000E+03  0.17130000000E+03 0. -1.
       11    1    1    2    0    0 -0.47114704170E-03  0.20098886451E-03  0.49099580160E-02  0.49629917263E-02  0.51109989000E-03 0.  1.
     -623    1    1    2    0    0  0.51161397631E-04 -0.16233155617E-03  0.71045834225E-04  0.17130000000E+03  0.17130000000E+03 0. -1.
      622    1    1    2    0    0  0.41998564402E-03 -0.38657308176E-04  0.39950189674E+01  0.39950370121E+01  0.12000000000E-01 0.  1.
</event>
<event>
 5   0  0.3564000E+09  0.9118800E+02  0.7818608E-02  0.1180000E+00
       11   -1    0    0    0    0  0.00000000000E+00  0.00000000000E+00  0.39999999673E+01  0.40000000000E+01  0.51109989000E-03 0.  1.
     -623   -1    0    0    0    0  0.00000000000E+00  0.00000000000E+00  0.12525980253E-10  0.17130000000E+03  0.17130000000E+03 0. -1.
       11    1    1    2    0    0 -0.77041587897E-02  0.48147168020E-04  0.25089746670E-01  0.26250961704E-01  0.51109989000E-03 0.  1.
     -623    1    1    2    0    0  0.76001754787E-02  0.19854190686E-02  0.11800072189E-02  0.17130000018E+03  0.17130000000E+03 0. -1.
      622    1    1    2    0    0  0.10398331096E-03 -0.20335662366E-02  0.39737302135E+01  0.39737488541E+01  0.12000000000E-01 0.  1.
</event>
<event>
 5   0  0.3564000E+09  0.9118800E+02  0.7818608E-02  0.1180000E+00
       11   -1    0    0    0    0  0.00000000000E+00  0.00000000000E+00  0.39999999673E+01  0.40000000000E+01  0.51109989000E-03 0.  1.
     -623   -1    0    0    0    0  0.00000000000E+00  0.00000000000E+00  0.12525980253E-10  0.17130000000E+03  0.17130000000E+03 0. -1.
       11    1    1    2    0    0 -0.93267576241E-03  0.21533408239E-02  0.18042575371E-01  0.18201717150E-01  0.51109989000E-03 0.  1.
     -623    1    1    2    0    0 -0.17143220876E-02 -0.12744348561E-02  0.17818170815E-03  0.17130000001E+03  0.17130000000E+03 0. -1.
      622    1    1    2    0    0  0.26469978500E-02 -0.87890596776E-03  0.39817792103E+01  0.39817982694E+01  0.12000000000E-01 0.  1.
</event>
<event>
 5   0  0.3564000E+09  0.9118800E+02  0.7818608E-02  0.1180000E+00
       11   -1    0    0    0    0  0.00000000000E+00  0.00000000000E+00  0.39999999673E+01  0.40000000000E+01  0.51109989000E-03 0. -1.
     -623   -1    0    0    0    0  0.00000000000E+00  0.00000000000E+00  0.12525980253E-10  0.17130000000E+03  0.17130000000E+03 0. -1.
       11    1    1    2    0    0  0.27653984981E-02 -0.65431239653E-03  0.19269091977E+00  0.19271255107E+00  0.51109989000E-03 0. -1.
     -623    1    1    2    0    0 -0.15161328589E-04 -0.55102890084E-04  0.41569246317E-04  0.17130000000E+03  0.17130000000E+03 0. -1.
      622    1    1    2    0    0 -0.27502371695E-02  0.70941528661E-03  0.38072674783E+01  0.38072874489E+01  0.12000000000E-01 0. -1.
</event>
<event>
 5   0  0.3564000E+09  0.9118800E+02  0.7818608E-02  0.1180000E+00
       11   -1    0    0    0    0  0.00000000000E+00  0.00000000000E+00  0.39999999673E+01  0.40000000000E+01  0.51109989000E-03 0. -1.
     -623   -1    0    0    0    0  0.00000000000E+00  0.00000000000E+00  0.12525980253E-10  0.17130000000E+03  0.17130000000E+03 0.  1.
       11    1    1    2    0    0 -0.38283276814E-02  0.11359308574E-01  0.12249690270E+00  0.12308307104E+00  0.51109989000E-03 0. -1.
     -623    1    1    2    0    0  0.15914667526E-02  0.13591965082E-02  0.62622857971E-03  0.17130000001E+03  0.17130000000E+03 0.  1.
      622    1    1    2    0    0  0.22368609289E-02 -0.12718505082E-01  0.38768768361E+01  0.38769169150E+01  0.12000000000E-01 0. -1.
</event>
<event>
 5   0  0.3564000E+09  0.9118800E+02  0.7818608E-02  0.1180000E+00
       11   -1    0    0    0    0  0.00000000000E+00  0.00000000000E+00  0.39999999673E+01  0.40000000000E+01  0.51109989000E-03 0. -1.
     -623   -1    0    0    0    0  0.00000000000E+00  0.00000000000E+00  0.12525980253E-10  0.17130000000E+03  0.17130000000E+03 0. -1.
       11    1    1    2    0    0  0.71148520502E-03  0.95199198776E-03  0.21336183809E+00  0.21336576031E+00  0.51109989000E-03 0. -1.
     -623    1    1    2    0    0 -0.41934830364E-04  0.59813309726E-04  0.23098273599E-04  0.17130000000E+03  0.17130000000E+03 0. -1.
      622    1    1    2    0    0 -0.66955037465E-03 -0.10118052975E-02  0.37866150310E+01  0.37866342397E+01  0.12000000000E-01 0. -1.
</event>
<event>
 5   0  0.3564000E+09  0.9118800E+02  0.7818608E-02  0.1180000E+00
       11   -1    0    0    0    0  0.00000000000E+00  0.00000000000E+00  0.39999999673E+01  0.40000000000E+01  0.51109989000E-03 0.  1.
     -623   -1    0    0    0    0  0.00000000000E+00  0.00000000000E+00  0.12525980253E-10  0.17130000000E+03  0.17130000000E+03 0.  1.
       11    1    1    2    0    0 -0.14102258170E-01  0.25647439616E-01  0.67741023404E+00  0.67804244060E+00  0.51109989000E-03 0.  1.
     -623    1    1    2    0    0 -0.17522444632E-01  0.37748231634E-03  0.90723266888E-03  0.17130000090E+03  0.17130000000E+03 0.  1.
      622    1    1    2    0    0  0.31624702804E-01 -0.26024921932E-01  0.33216825009E+01  0.33219566607E+01  0.12000000000E-01 0.  1.
</event>
<event>
 5   0  0.3564000E+09  0.9118800E+02  0.7818608E-02  0.1180000E+00
       11   -1    0    0    0    0  0.00000000000E+00  0.00000000000E+00  0.39999999673E+01  0.40000000000E+01  0.51109989000E-03 0.  1.
     -623   -1    0    0    0    0  0.00000000000E+00  0.00000000000E+00  0.12525980253E-10  0.17130000000E+03  0.17130000000E+03 0.  1.
       11    1    1    2    0    0 -0.54599232530E-02  0.21146120217E-02  0.66152096486E+00  0.66154707355E+00  0.51109989000E-03 0.  1.
     -623    1    1    2    0    0 -0.20130685330E-01 -0.27371186849E-02  0.14698917718E-03  0.17130000120E+03  0.17130000000E+03 0.  1.
      622    1    1    2    0    0  0.25590608589E-01  0.62250666400E-03  0.33383320145E+01  0.33384517228E+01  0.12000000000E-01 0.  1.
</event>
<event>
 5   0  0.3564000E+09  0.9118800E+02  0.7818608E-02  0.1180000E+00
       11   -1    0    0    0    0  0.00000000000E+00  0.00000000000E+00  0.39999999673E+01  0.40000000000E+01  0.51109989000E-03 0. -1.
     -623   -1    0    0    0    0  0.00000000000E+00  0.00000000000E+00  0.12525980253E-10  0.17130000000E+03  0.17130000000E+03 0. -1.
       11    1    1    2    0    0 -0.16332561323E-02  0.53882983609E-03  0.84680801792E-01  0.84699806839E-01  0.51109989000E-03 0.  1.
     -623    1    1    2    0    0  0.15721450338E-03  0.20638392496E-04  0.37680123733E-04  0.17130000000E+03  0.17130000000E+03 0. -1.
      622    1    1    2    0    0  0.14760416292E-02 -0.55946822855E-03  0.39152814783E+01  0.39153001859E+01  0.12000000000E-01 0. -1.
</event>
<event>
 5   0  0.3564000E+09  0.9118800E+02  0.7818608E-02  0.1180000E+00
       11   -1    0    0    0    0  0.00000000000E+00  0.00000000000E+00  0.39999999673E+01  0.40000000000E+01  0.51109989000E-03 0. -1.
     -623   -1    0    0    0    0  0.00000000000E+00  0.00000000000E+00  0.12525980253E-10  0.17130000000E+03  0.17130000000E+03 0. -1.
       11    1    1    2    0    0 -0.25775642011E-03 -0.41490061436E-02  0.19144389355E+00  0.19148970283E+00  0.51109989000E-03 0. -1.
     -623    1    1    2    0    0  0.41431552849E-02  0.41058972796E-02  0.66763218467E-04  0.17130000010E+03  0.17130000000E+03 0. -1.
      622    1    1    2    0    0 -0.38853988713E-02  0.43108857514E-04  0.38084893169E+01  0.38085102042E+01  0.12000000000E-01 0. -1.
</event>
<event>
 5   0  0.3564000E+09  0.9118800E+02  0.7818608E-02  0.1180000E+00
       11   -1    0    0    0    0  0.00000000000E+00  0.00000000000E+00  0.39999999673E+01  0.40000000000E+01  0.51109989000E-03 0.  1.
     -623   -1    0    0    0    0  0.00000000000E+00  0.00000000000E+00  0.12525980253E-10  0.17130000000E+03  0.17130000000E+03 0. -1.
       11    1    1    2    0    0  0.11954006070E-02 -0.14867879543E-03  0.51089763418E-01  0.51106518539E-01  0.51109989000E-03 0.  1.
     -623    1    1    2    0    0 -0.15372896908E-03 -0.18238664459E-03  0.35106917426E-04  0.17130000000E+03  0.17130000000E+03 0. -1.
      622    1    1    2    0    0 -0.10416716377E-02  0.33106544032E-03  0.39488751035E+01  0.39488934878E+01  0.12000000000E-01 0.  1.
</event>
<event>
 5   0  0.3564000E+09  0.9118800E+02  0.7818608E-02  0.1180000E+00
       11   -1    0    0    0    0  0.00000000000E+00  0.00000000000E+00  0.39999999673E+01  0.40000000000E+01  0.51109989000E-03 0.  1.
     -623   -1    0    0    0    0  0.00000000000E+00  0.00000000000E+00  0.12525980253E-10  0.17130000000E+03  0.17130000000E+03 0. -1.
       11    1    1    2    0    0  0.32681798447E-03 -0.69559096591E-04  0.11322799040E+00  0.11322963694E+00  0.51109989000E-03 0.  1.
     -623    1    1    2    0    0 -0.27676548599E-03  0.40871371066E-03  0.20154148279E-04  0.17130000000E+03  0.17130000000E+03 0. -1.
      622    1    1    2    0    0 -0.50052498478E-04 -0.33915461407E-03  0.38867518228E+01  0.38867703623E+01  0.12000000000E-01 0.  1.
</event>
<event>
 5   0  0.3564000E+09  0.9118800E+02  0.7818608E-02  0.1180000E+00
       11   -1    0    0    0    0  0.00000000000E+00  0.00000000000E+00  0.39999999673E+01  0.40000000000E+01  0.51109989000E-03 0.  1.
     -623   -1    0    0    0    0  0.00000000000E+00  0.00000000000E+00  0.12525980253E-10  0.17130000000E+03  0.17130000000E+03 0. -1.
       11    1    1    2    0    0 -0.59041410586E-03  0.96392379302E-03  0.31089975992E-01  0.31114716254E-01  0.51109989000E-03 0.  1.
     -623    1    1    2    0    0  0.76269675278E-03  0.93804963831E-04  0.42995191460E-04  0.17130000000E+03  0.17130000000E+03 0. -1.
      622    1    1    2    0    0 -0.17228264692E-03 -0.10577287569E-02  0.39688669962E+01  0.39688852820E+01  0.12000000000E-01 0.  1.
</event>
<event>
 5   0  0.3564000E+09  0.9118800E+02  0.7818608E-02  0.1180000E+00
       11   -1    0    0    0    0  0.00000000000E+00  0.00000000000E+00  0.39999999673E+01  0.40000000000E+01  0.51109989000E-03 0. -1.
     -623   -1    0    0    0    0  0.00000000000E+00  0.00000000000E+00  0.12525980253E-10  0.17130000000E+03  0.17130000000E+03 0. -1.
       11    1    1    2    0    0 -0.62346040077E-02 -0.67932159433E-02  0.91664874703E+00  0.91669526274E+00  0.51109989000E-03 0. -1.
     -623    1    1    2    0    0 -0.55697840551E-04 -0.23464710341E-02  0.89813678269E-04  0.17130000002E+03  0.17130000000E+03 0. -1.
      622    1    1    2    0    0  0.62903018483E-02  0.91396869769E-02  0.30832614060E+01  0.30833047205E+01  0.12000000000E-01 0. -1.
</event>
<event>
 5   0  0.3564000E+09  0.9118800E+02  0.7818608E-02  0.1180000E+00
       11   -1    0    0    0    0  0.00000000000E+00  0.00000000000E+00  0.39999999673E+01  0.40000000000E+01  0.51109989000E-03 0. -1.
     -623   -1    0    0    0    0  0.00000000000E+00  0.00000000000E+00  0.12525980253E-10  0.17130000000E+03  0.17130000000E+03 0. -1.
       11    1    1    2    0    0 -0.66172247622E-02  0.14711414431E-01  0.64058807544E+00  0.64079135216E+00  0.51109989000E-03 0. -1.
     -623    1    1    2    0    0 -0.73654167361E-02  0.91131552778E-02  0.33866844365E-03  0.17130000040E+03  0.17130000000E+03 0. -1.
      622    1    1    2    0    0  0.13982641499E-01 -0.23824569709E-01  0.33590732238E+01  0.33592082471E+01  0.12000000000E-01 0. -1.
</event>
<event>
 5   0  0.3564000E+09  0.9118800E+02  0.7818608E-02  0.1180000E+00
       11   -1    0    0    0    0  0.00000000000E+00  0.00000000000E+00  0.39999999673E+01  0.40000000000E+01  0.51109989000E-03 0. -1.
     -623   -1    0    0    0    0  0.00000000000E+00  0.00000000000E+00  0.12525980253E-10  0.17130000000E+03  0.17130000000E+03 0. -1.
       11    1    1    2    0    0  0.19496663816E-02 -0.39968042124E-02  0.31154659263E+00  0.31157874806E+00  0.51109989000E-03 0. -1.
     -623    1    1    2    0    0  0.19612457693E-03 -0.40140446253E-03  0.54890467422E-04  0.17130000000E+03  0.17130000000E+03 0. -1.
      622    1    1    2    0    0 -0.21457909586E-02  0.43982086750E-02  0.36883984856E+01  0.36884212527E+01  0.12000000000E-01 0.  0.
</event>
<event>
 5   0  0.3564000E+09  0.9118800E+02  0.7818608E-02  0.1180000E+00
       11   -1    0    0    0    0  0.00000000000E+00  0.00000000000E+00  0.39999999673E+01  0.40000000000E+01  0.51109989000E-03 0. -1.
     -623   -1    0    0    0    0  0.00000000000E+00  0.00000000000E+00  0.12525980253E-10  0.17130000000E+03  0.17130000000E+03 0.  1.
       11    1    1    2    0    0  0.79342313985E-04  0.17913300900E-02  0.10623100871E+01  0.10623117233E+01  0.51109989000E-03 0. -1.
     -623    1    1    2    0    0  0.66943483887E-02 -0.40300962663E-02  0.34953484955E-04  0.17130000018E+03  0.17130000000E+03 0.  1.
      622    1    1    2    0    0 -0.67736907027E-02  0.22387661762E-02  0.29376549268E+01  0.29376880985E+01  0.12000000000E-01 0. -1.
</event>
<event>
 5   0  0.3564000E+09  0.9118800E+02  0.7818608E-02  0.1180000E+00
       11   -1    0    0    0    0  0.00000000000E+00  0.00000000000E+00  0.39999999673E+01  0.40000000000E+01  0.51109989000E-03 0.  1.
     -623   -1    0    0    0    0  0.00000000000E+00  0.00000000000E+00  0.12525980253E-10  0.17130000000E+03  0.17130000000E+03 0. -1.
       11    1    1    2    0    0 -0.15257927812E-02  0.58787040858E-03  0.18850250004E+00  0.18851028455E+00  0.51109989000E-03 0.  1.
     -623    1    1    2    0    0 -0.21500435242E-03  0.71918849388E-04  0.27096957006E-04  0.17130000000E+03  0.17130000000E+03 0. -1.
      622    1    1    2    0    0  0.17407971336E-02 -0.65978925796E-03  0.38114703698E+01  0.38114897147E+01  0.12000000000E-01 0.  1.
</event>
<event>
 5   0  0.3564000E+09  0.9118800E+02  0.7818608E-02  0.1180000E+00
       11   -1    0    0    0    0  0.00000000000E+00  0.00000000000E+00  0.39999999673E+01  0.40000000000E+01  0.51109989000E-03 0. -1.
     -623   -1    0    0    0    0  0.00000000000E+00  0.00000000000E+00  0.12525980253E-10  0.17130000000E+03  0.17130000000E+03 0. -1.
       11    1    1    2    0    0 -0.44360002381E-02 -0.70268218157E-03  0.30820972095E+00  0.30824286718E+00  0.51109989000E-03 0. -1.
     -623    1    1    2    0    0  0.36497805439E-03 -0.22762494143E-02  0.56078592697E-04  0.17130000002E+03  0.17130000000E+03 0. -1.
      622    1    1    2    0    0  0.40710221837E-02  0.29789315959E-02  0.36917341678E+01  0.36917571173E+01  0.12000000000E-01 0. -1.
</event>
<event>
 5   0  0.3564000E+09  0.9118800E+02  0.7818608E-02  0.1180000E+00
       11   -1    0    0    0    0  0.00000000000E+00  0.00000000000E+00  0.39999999673E+01  0.40000000000E+01  0.51109989000E-03 0. -1.
     -623   -1    0    0    0    0  0.00000000000E+00  0.00000000000E+00  0.12525980253E-10  0.17130000000E+03  0.17130000000E+03 0. -1.
       11    1    1    2    0    0 -0.10439314155E-02  0.47066119640E-02  0.69644515358E+00  0.69646202707E+00  0.51109989000E-03 0. -1.
     -623    1    1    2    0    0  0.33906285272E-05 -0.20550823267E-03  0.41866164807E-04  0.17130000000E+03  0.17130000000E+03 0. -1.
      622    1    1    2    0    0  0.10405407869E-02 -0.45011037313E-02  0.33035129476E+01  0.33035379728E+01  0.12000000000E-01 0.  0.
</event>
<event>
 5   0  0.3564000E+09  0.9118800E+02  0.7818608E-02  0.1180000E+00
       11   -1    0    0    0    0  0.00000000000E+00  0.00000000000E+00  0.39999999673E+01  0.40000000000E+01  0.51109989000E-03 0.  1.
     -623   -1    0    0    0    0  0.00000000000E+00  0.00000000000E+00  0.12525980253E-10  0.17130000000E+03  0.17130000000E+03 0.  1.
       11    1    1    2    0    0 -0.47167610211E-04  0.94196971894E-04  0.50917752599E-01  0.50920426655E-01  0.51109989000E-03 0.  1.
     -623    1    1    2    0    0 -0.32919353506E-03 -0.32965290157E-04  0.20892283958E-04  0.17130000000E+03  0.17130000000E+03 0.  1.
      622    1    1    2    0    0  0.37636114474E-03 -0.61231681790E-04  0.39490613161E+01  0.39490795666E+01  0.12000000000E-01 0.  1.
</event>
<event>
 5   0  0.3564000E+09  0.9118800E+02  0.7818608E-02  0.1180000E+00
       11   -1    0    0    0    0  0.00000000000E+00  0.00000000000E+00  0.39999999673E+01  0.40000000000E+01  0.51109989000E-03 0.  1.
     -623   -1    0    0    0    0  0.00000000000E+00  0.00000000000E+00  0.12525980253E-10  0.17130000000E+03  0.17130000000E+03 0. -1.
       11    1    1    2    0    0  0.49814608640E-03  0.53461805288E-02  0.76125121719E+00  0.76127032432E+00  0.51109989000E-03 0.  1.
     -623    1    1    2    0    0 -0.86523950390E-04 -0.38985450913E-03  0.45124569205E-04  0.17130000000E+03  0.17130000000E+03 0. -1.
      622    1    1    2    0    0 -0.41162213601E-03 -0.49563260197E-02  0.32387036256E+01  0.32387296752E+01  0.12000000000E-01 0.  0.
</event>
<event>
 5   0  0.3564000E+09  0.9118800E+02  0.7818608E-02  0.1180000E+00
       11   -1    0    0    0    0  0.00000000000E+00  0.00000000000E+00  0.39999999673E+01  0.40000000000E+01  0.51109989000E-03 0.  1.
     -623   -1    0    0    0    0  0.00000000000E+00  0.00000000000E+00  0.12525980253E-10  0.17130000000E+03  0.17130000000E+03 0. -1.
       11    1    1    2    0    0 -0.38295929062E-03 -0.28656639511E-02  0.16594373132E+00  0.16596970168E+00  0.51109989000E-03 0.  1.
     -623    1    1    2    0    0  0.30884168768E-03  0.16639729348E-03  0.45668222937E-04  0.17130000000E+03  0.17130000000E+03 0. -1.
      622    1    1    2    0    0  0.74117602939E-04  0.26992666577E-02  0.38340105678E+01  0.38340302980E+01  0.12000000000E-01 0.  1.
</event>
<event>
 5   0  0.3564000E+09  0.9118800E+02  0.7818608E-02  0.1180000E+00
       11   -1    0    0    0    0  0.00000000000E+00  0.00000000000E+00  0.39999999673E+01  0.40000000000E+01  0.51109989000E-03 0.  1.
     -623   -1    0    0    0    0  0.00000000000E+00  0.00000000000E+00  0.12525980253E-10  0.17130000000E+03  0.17130000000E+03 0. -1.
       11    1    1    2    0    0 -0.21316035393E-03 -0.50738777609E-03  0.16195753337E-02  0.17852526575E-02  0.51109989000E-03 0.  1.
     -623    1    1    2    0    0  0.83803875318E-04 -0.58070681041E-04  0.18369496862E-03  0.17130000000E+03  0.17130000000E+03 0. -1.
      622    1    1    2    0    0  0.12935647856E-03  0.56545845717E-03  0.39981966998E+01  0.39982147500E+01  0.12000000000E-01 0.  1.
</event>
<event>
 5   0  0.3564000E+09  0.9118800E+02  0.7818608E-02  0.1180000E+00
       11   -1    0    0    0    0  0.00000000000E+00  0.00000000000E+00  0.39999999673E+01  0.40000000000E+01  0.51109989000E-03 0.  1.
     -623   -1    0    0    0    0  0.00000000000E+00  0.00000000000E+00  0.12525980253E-10  0.17130000000E+03  0.17130000000E+03 0.  1.
       11    1    1    2    0    0 -0.15979386576E-02  0.40227686339E-03  0.31064005208E-01  0.31111876748E-01  0.51109989000E-03 0.  1.
     -623    1    1    2    0    0  0.54624320195E-02 -0.33355510119E-04  0.67965730250E-04  0.17130000009E+03  0.17130000000E+03 0.  1.
      622    1    1    2    0    0 -0.38644933618E-02 -0.36892135327E-03  0.39688679964E+01  0.39688880361E+01  0.12000000000E-01 0.  0.
</event>
<event>
 5   0  0.3564000E+09  0.9118800E+02  0.7818608E-02  0.1180000E+00
       11   -1    0    0    0    0  0.00000000000E+00  0.00000000000E+00  0.39999999673E+01  0.40000000000E+01  0.51109989000E-03 0.  1.
     -623   -1    0    0    0    0  0.00000000000E+00  0.00000000000E+00  0.12525980253E-10  0.17130000000E+03  0.17130000000E+03 0.  1.
       11    1    1    2    0    0  0.25853817677E-02 -0.19667881740E-02  0.81396224940E-01  0.81462624006E-01  0.51109989000E-03 0.  1.
     -623    1    1    2    0    0  0.10707376007E-03  0.12220450386E-04  0.86153205881E-04  0.17130000000E+03  0.17130000000E+03 0.  1.
      622    1    1    2    0    0 -0.26924555278E-02  0.19545677236E-02  0.39185175892E+01  0.39185373759E+01  0.12000000000E-01 0.  1.
</event>
<event>
 5   0  0.3564000E+09  0.9118800E+02  0.7818608E-02  0.1180000E+00
       11   -1    0    0    0    0  0.00000000000E+00  0.00000000000E+00  0.39999999673E+01  0.40000000000E+01  0.51109989000E-03 0.  1.
     -623   -1    0    0    0    0  0.00000000000E+00  0.00000000000E+00  0.12525980253E-10  0.17130000000E+03  0.17130000000E+03 0. -1.
       11    1    1    2    0    0  0.52978281991E-03 -0.14802010653E-02  0.15162268779E+00  0.15163169965E+00  0.51109989000E-03 0.  1.
     -623    1    1    2    0    0  0.26783544797E-03  0.13975781479E-03  0.28004875995E-04  0.17130000000E+03  0.17130000000E+03 0. -1.
      622    1    1    2    0    0 -0.79761826874E-03  0.13404432500E-02  0.38483492874E+01  0.38483683128E+01  0.12000000000E-01 0.  1.
</event>
<event>
 5   0  0.3564000E+09  0.9118800E+02  0.7818608E-02  0.1180000E+00
       11   -1    0    0    0    0  0.00000000000E+00  0.00000000000E+00  0.39999999673E+01  0.40000000000E+01  0.51109989000E-03 0.  1.
     -623   -1    0    0    0    0  0.00000000000E+00  0.00000000000E+00  0.12525980253E-10  0.17130000000E+03  0.17130000000E+03 0.  1.
       11    1    1    2    0    0 -0.27385349722E-03  0.34999426436E-03  0.97630474602E-02  0.97865116449E-02  0.51109989000E-03 0.  1.
     -623    1    1    2    0    0  0.37792640365E-03 -0.12008182023E-02  0.41572431091E-04  0.17130000000E+03  0.17130000000E+03 0.  1.
      622    1    1    2    0    0 -0.10407290644E-03  0.85082393795E-03  0.39901953475E+01  0.39902134837E+01  0.12000000000E-01 0.  1.
</event>
<event>
 5   0  0.3564000E+09  0.9118800E+02  0.7818608E-02  0.1180000E+00
       11   -1    0    0    0    0  0.00000000000E+00  0.00000000000E+00  0.39999999673E+01  0.40000000000E+01  0.51109989000E-03 0. -1.
     -623   -1    0    0    0    0  0.00000000000E+00  0.00000000000E+00  0.12525980253E-10  0.17130000000E+03  0.17130000000E+03 0.  1.
       11    1    1    2    0    0  0.29212476077E-03 -0.22049064797E-03  0.32285464750E-01  0.32291584201E-01  0.51109989000E-03 0. -1.
     -623    1    1    2    0    0  0.29783610477E-04 -0.65707500097E-04  0.24256744903E-04  0.17130000000E+03  0.17130000000E+03 0.  1.
      622    1    1    2    0    0 -0.32190837125E-03  0.28619814808E-03  0.39676902464E+01  0.39677084163E+01  0.12000000000E-01 0. -1.
</event>
<event>
 5   0  0.3564000E+09  0.9118800E+02  0.7818608E-02  0.1180000E+00
       11   -1    0    0    0    0  0.00000000000E+00  0.00000000000E+00  0.39999999673E+01  0.40000000000E+01  0.51109989000E-03 0. -1.
     -623   -1    0    0    0    0  0.00000000000E+00  0.00000000000E+00  0.12525980253E-10  0.17130000000E+03  0.17130000000E+03 0. -1.
       11    1    1    2    0    0 -0.20144807676E-03  0.14348732412E-02  0.22683040474E+00  0.22683560827E+00  0.51109989000E-03 0. -1.
     -623    1    1    2    0    0 -0.13050706393E-03 -0.36285832879E-04  0.24526930575E-04  0.17130000000E+03  0.17130000000E+03 0. -1.
      622    1    1    2    0    0  0.33195514129E-03 -0.13985874081E-02  0.37731450540E+01  0.37731644100E+01  0.12000000000E-01 0. -1.
</event>
<event>
 5   0  0.3564000E+09  0.9118800E+02  0.7818608E-02  0.1180000E+00
       11   -1    0    0    0    0  0.00000000000E+00  0.00000000000E+00  0.39999999673E+01  0.40000000000E+01  0.51109989000E-03 0.  1.
     -623   -1    0    0    0    0  0.00000000000E+00  0.00000000000E+00  0.12525980253E-10  0.17130000000E+03  0.17130000000E+03 0. -1.
       11    1    1    2    0    0 -0.10213738119E-02  0.77064445174E-03  0.20756977076E-01  0.20802654104E-01  0.51109989000E-03 0.  1.
     -623    1    1    2    0    0 -0.23641214130E-03  0.94495957563E-04  0.64031567382E-04  0.17130000000E+03  0.17130000000E+03 0. -1.
      622    1    1    2    0    0  0.12577859532E-02 -0.86514040928E-03  0.39791789578E+01  0.39791973448E+01  0.12000000000E-01 0.  1.
</event>
<event>
 5   0  0.3564000E+09  0.9118800E+02  0.7818608E-02  0.1180000E+00
       11   -1    0    0    0    0  0.00000000000E+00  0.00000000000E+00  0.39999999673E+01  0.40000000000E+01  0.51109989000E-03 0. -1.
     -623   -1    0    0    0    0  0.00000000000E+00  0.00000000000E+00  0.12525980253E-10  0.17130000000E+03  0.17130000000E+03 0. -1.
       11    1    1    2    0    0  0.72313072364E-03  0.40461003483E-02  0.95575159471E-01  0.95664863859E-01  0.51109989000E-03 0. -1.
     -623    1    1    2    0    0  0.79823833062E-02  0.28459796689E-02  0.12411105308E-03  0.17130000021E+03  0.17130000000E+03 0. -1.
      622    1    1    2    0    0 -0.87055140354E-02 -0.68920800191E-02  0.39043006996E+01  0.39043349292E+01  0.12000000000E-01 0. -1.
</event>
<event>
 5   0  0.3564000E+09  0.9118800E+02  0.7818608E-02  0.1180000E+00
       11   -1    0    0    0    0  0.00000000000E+00  0.00000000000E+00  0.39999999673E+01  0.40000000000E+01  0.51109989000E-03 0.  1.
     -623   -1    0    0    0    0  0.00000000000E+00  0.00000000000E+00  0.12525980253E-10  0.17130000000E+03  0.17130000000E+03 0. -1.
       11    1    1    2    0    0 -0.33226783854E-02 -0.23336601364E-02  0.74935237309E+00  0.74936354758E+00  0.51109989000E-03 0.  1.
     -623    1    1    2    0    0 -0.10670409074E-02 -0.51301127054E-03  0.37505992867E-04  0.17130000000E+03  0.17130000000E+03 0. -1.
      622    1    1    2    0    0  0.43897192921E-02  0.28466714066E-02  0.32506100855E+01  0.32506364456E+01  0.12000000000E-01 0.  0.
</event>
<event>
 5   0  0.3564000E+09  0.9118800E+02  0.7818608E-02  0.1180000E+00
       11   -1    0    0    0    0  0.00000000000E+00  0.00000000000E+00  0.39999999673E+01  0.40000000000E+01  0.51109989000E-03 0.  1.
     -623   -1    0    0    0    0  0.00000000000E+00  0.00000000000E+00  0.12525980253E-10  0.17130000000E+03  0.17130000000E+03 0. -1.
       11    1    1    2    0    0 -0.30386448024E-03  0.39952704519E-03  0.59208593829E-01  0.59212927320E-01  0.51109989000E-03 0.  1.
     -623    1    1    2    0    0  0.21808706635E-03 -0.27086530595E-03  0.22574743207E-04  0.17130000000E+03  0.17130000000E+03 0. -1.
      622    1    1    2    0    0  0.85777413268E-04 -0.12866173847E-03  0.39407688102E+01  0.39407870838E+01  0.12000000000E-01 0.  1.
</event>
<event>
 5   0  0.3564000E+09  0.9118800E+02  0.7818608E-02  0.1180000E+00
       11   -1    0    0    0    0  0.00000000000E+00  0.00000000000E+00  0.39999999673E+01  0.40000000000E+01  0.51109989000E-03 0.  1.
     -623   -1    0    0    0    0  0.00000000000E+00  0.00000000000E+00  0.12525980253E-10  0.17130000000E+03  0.17130000000E+03 0. -1.
       11    1    1    2    0    0  0.12797220569E-02 -0.63464784279E-03  0.28752992721E+00  0.28753392970E+00  0.51109989000E-03 0.  1.
     -623    1    1    2    0    0 -0.87489856449E-03  0.50699359350E-03  0.23391273770E-04  0.17130000000E+03  0.17130000000E+03 0. -1.
      622    1    1    2    0    0 -0.40482349174E-03  0.12765424890E-03  0.37124466519E+01  0.37124660704E+01  0.12000000000E-01 0.  1.
</event>
<event>
 5   0  0.3564000E+09  0.9118800E+02  0.7818608E-02  0.1180000E+00
       11   -1    0    0    0    0  0.00000000000E+00  0.00000000000E+00  0.39999999673E+01  0.40000000000E+01  0.51109989000E-03 0.  1.
     -623   -1    0    0    0    0  0.00000000000E+00  0.00000000000E+00  0.12525980253E-10  0.17130000000E+03  0.17130000000E+03 0. -1.
       11    1    1    2    0    0 -0.14568804739E-02 -0.26240704746E-04  0.10544202539E+00  0.10545333152E+00  0.51109989000E-03 0.  1.
     -623    1    1    2    0    0  0.63452860015E-04 -0.13162131356E-03  0.30013463779E-04  0.17130000000E+03  0.17130000000E+03 0. -1.
      622    1    1    2    0    0  0.13934276139E-02  0.15786201831E-03  0.38945279285E+01  0.38945466684E+01  0.12000000000E-01 0.  1.
</event>
<event>
 5   0  0.3564000E+09  0.9118800E+02  0.7818608E-02  0.1180000E+00
       11   -1    0    0    0    0  0.00000000000E+00  0.00000000000E+00  0.39999999673E+01  0.40000000000E+01  0.51109989000E-03 0. -1.
     -623   -1    0    0    0    0  0.00000000000E+00  0.00000000000E+00  0.12525980253E-10  0.17130000000E+03  0.17130000000E+03 0. -1.
       11    1    1    2    0    0  0.16461978509E-02  0.11476531805E-02  0.48690031942E+00  0.48690472307E+00  0.51109989000E-03 0. -1.
     -623    1    1    2    0    0 -0.24874408131E-03  0.17110454438E-03  0.25391550958E-04  0.17130000000E+03  0.17130000000E+03 0. -1.
      622    1    1    2    0    0 -0.13974537696E-02 -0.13187577249E-02  0.35130742564E+01  0.35130952767E+01  0.12000000000E-01 0. -1.
</event>
<event>
 5   0  0.3564000E+09  0.9118800E+02  0.7818608E-02  0.1180000E+00
       11   -1    0    0    0    0  0.00000000000E+00  0.00000000000E+00  0.39999999673E+01  0.40000000000E+01  0.51109989000E-03 0. -1.
     -623   -1    0    0    0    0  0.00000000000E+00  0.00000000000E+00  0.12525980253E-10  0.17130000000E+03  0.17130000000E+03 0. -1.
       11    1    1    2    0    0  0.18695025138E-02 -0.44127510617E-03  0.63394833495E+00  0.63395145112E+00  0.51109989000E-03 0. -1.
     -623    1    1    2    0    0  0.44448843667E-02 -0.56955640783E-02  0.36142919990E-04  0.17130000015E+03  0.17130000000E+03 0. -1.
      622    1    1    2    0    0 -0.63143868805E-02  0.61368391845E-02  0.33660154895E+01  0.33660483965E+01  0.12000000000E-01 0.  0.
</event>
<event>
 5   0  0.3564000E+09  0.9118800E+02  0.7818608E-02  0.1180000E+00
       11   -1    0    0    0    0  0.00000000000E+00  0.00000000000E+00  0.39999999673E+01  0.40000000000E+01  0.51109989000E-03 0.  1.
     -623   -1    0    0    0    0  0.00000000000E+00  0.00000000000E+00  0.12525980253E-10  0.17130000000E+03  0.17130000000E+03 0. -1.
       11    1    1    2    0    0  0.25692524397E-05 -0.34759927877E-02  0.71864306412E+00  0.71865165231E+00  0.51109989000E-03 0.  1.
     -623    1    1    2    0    0 -0.67994514131E-03  0.39877827172E-03  0.32012452707E-04  0.17130000000E+03  0.17130000000E+03 0. -1.
      622    1    1    2    0    0  0.67737588886E-03  0.30772145160E-02  0.32813248907E+01  0.32813483458E+01  0.12000000000E-01 0.  1.
</event>
<event>
 5   0  0.3564000E+09  0.9118800E+02  0.7818608E-02  0.1180000E+00
       11   -1    0    0    0    0  0.00000000000E+00  0.00000000000E+00  0.39999999673E+01  0.40000000000E+01  0.51109989000E-03 0. -1.
     -623   -1    0    0    0    0  0.00000000000E+00  0.00000000000E+00  0.12525980253E-10  0.17130000000E+03  0.17130000000E+03 0.  1.
       11    1    1    2    0    0 -0.10900901274E-02  0.34116750574E-02  0.88115121526E+00  0.88115864247E+00  0.51109989000E-03 0. -1.
     -623    1    1    2    0    0  0.40372979391E-03 -0.52032506030E-05  0.32416483281E-04  0.17130000000E+03  0.17130000000E+03 0.  1.
      622    1    1    2    0    0  0.68636033293E-03 -0.34064718068E-02  0.31188163409E+01  0.31188413623E+01  0.12000000000E-01 0. -1.
</event>
<event>
 5   0  0.3564000E+09  0.9118800E+02  0.7818608E-02  0.1180000E+00
       11   -1    0    0    0    0  0.00000000000E+00  0.00000000000E+00  0.39999999673E+01  0.40000000000E+01  0.51109989000E-03 0.  1.
     -623   -1    0    0    0    0  0.00000000000E+00  0.00000000000E+00  0.12525980253E-10  0.17130000000E+03  0.17130000000E+03 0. -1.
       11    1    1    2    0    0 -0.14918292918E-03  0.32151228168E-02  0.44054795183E+00  0.44056000540E+00  0.51109989000E-03 0.  1.
     -623    1    1    2    0    0  0.16007485911E-02  0.15574973560E-02  0.35759096714E-04  0.17130000001E+03  0.17130000000E+03 0. -1.
      622    1    1    2    0    0 -0.14515656629E-02 -0.47726201737E-02  0.35594162589E+01  0.35594399825E+01  0.12000000000E-01 0.  1.
</event>
<event>
 5   0  0.3564000E+09  0.9118800E+02  0.7818608E-02  0.1180000E+00
       11   -1    0    0    0    0  0.00000000000E+00  0.00000000000E+00  0.39999999673E+01  0.40000000000E+01  0.51109989000E-03 0.  1.
     -623   -1    0    0    0    0  0.00000000000E+00  0.00000000000E+00  0.12525980253E-10  0.17130000000E+03  0.17130000000E+03 0.  1.
       11    1    1    2    0    0 -0.83517473966E-03 -0.11442198678E-02  0.70202376147E-01  0.70218527430E-01  0.51109989000E-03 0.  1.
     -623    1    1    2    0    0 -0.12454065075E-04  0.33394034027E-05  0.34697343025E-04  0.17130000000E+03  0.17130000000E+03 0.  1.
      622    1    1    2    0    0  0.84762880473E-03  0.11408804644E-02  0.39297628939E+01  0.39297814726E+01  0.12000000000E-01 0.  1.
</event>
<event>
 5   0  0.3564000E+09  0.9118800E+02  0.7818608E-02  0.1180000E+00
       11   -1    0    0    0    0  0.00000000000E+00  0.00000000000E+00  0.39999999673E+01  0.40000000000E+01  0.51109989000E-03 0.  1.
     -623   -1    0    0    0    0  0.00000000000E+00  0.00000000000E+00  0.12525980253E-10  0.17130000000E+03  0.17130000000E+03 0.  1.
       11    1    1    2    0    0 -0.39408379805E-02  0.17827304008E-02  0.16422115158E+00  0.16427889755E+00  0.51109989000E-03 0.  1.
     -623    1    1    2    0    0  0.50134027978E-03  0.24151888098E-03  0.78561463887E-04  0.17130000000E+03  0.17130000000E+03 0.  1.
      622    1    1    2    0    0  0.34394977008E-02 -0.20242492818E-02  0.38357002536E+01  0.38357211008E+01  0.12000000000E-01 0.  1.
</event>
<event>
 5   0  0.3564000E+09  0.9118800E+02  0.7818608E-02  0.1180000E+00
       11   -1    0    0    0    0  0.00000000000E+00  0.00000000000E+00  0.39999999673E+01  0.40000000000E+01  0.51109989000E-03 0. -1.
     -623   -1    0    0    0    0  0.00000000000E+00  0.00000000000E+00  0.12525980253E-10  0.17130000000E+03  0.17130000000E+03 0.  1.
       11    1    1    2    0    0 -0.94196804835E-05  0.26973382877E-03  0.36093049914E-02  0.36552907801E-02  0.51109989000E-03 0.  1.
     -623    1    1    2    0    0  0.11081525660E-02  0.22590525494E-03  0.64155174440E-04  0.17130000000E+03  0.17130000000E+03 0.  1.
      622    1    1    2    0    0 -0.10987328845E-02 -0.49563908352E-03  0.39963265037E+01  0.39963447020E+01  0.12000000000E-01 0. -1.
</event>
<event>
 5   0  0.3564000E+09  0.9118800E+02  0.7818608E-02  0.1180000E+00
       11   -1    0    0    0    0  0.00000000000E+00  0.00000000000E+00  0.39999999673E+01  0.40000000000E+01  0.51109989000E-03 0. -1.
     -623   -1    0    0    0    0  0.00000000000E+00  0.00000000000E+00  0.12525980253E-10  0.17130000000E+03  0.17130000000E+03 0.  1.
       11    1    1    2    0    0  0.87057106307E-03 -0.81456269310E-03  0.81458915269E+00  0.81459018550E+00  0.51109989000E-03 0. -1.
     -623    1    1    2    0    0  0.14741383689E-04  0.20654460786E-04  0.23825270386E-04  0.17130000000E+03  0.17130000000E+03 0.  1.
      622    1    1    2    0    0 -0.88531244680E-03  0.79390823226E-03  0.31853869999E+01  0.31854098250E+01  0.12000000000E-01 0. -1.
</event>
<event>
 5   0  0.3564000E+09  0.9118800E+02  0.7818608E-02  0.1180000E+00
       11   -1    0    0    0    0  0.00000000000E+00  0.00000000000E+00  0.39999999673E+01  0.40000000000E+01  0.51109989000E-03 0.  1.
     -623   -1    0    0    0    0  0.00000000000E+00  0.00000000000E+00  0.12525980253E-10  0.17130000000E+03  0.17130000000E+03 0.  1.
       11    1    1    2    0    0 -0.99730531873E-03  0.15334104367E-02  0.17568264927E+00  0.17569291518E+00  0.51109989000E-03 0.  1.
     -623    1    1    2    0    0 -0.59315440773E-04 -0.17404457657E-04  0.29506717946E-04  0.17130000000E+03  0.17130000000E+03 0.  1.
      622    1    1    2    0    0  0.10566207596E-02 -0.15160059790E-02  0.38242878143E+01  0.38243070877E+01  0.12000000000E-01 0.  1.
</event>
<event>
 5   0  0.3564000E+09  0.9118800E+02  0.7818608E-02  0.1180000E+00
       11   -1    0    0    0    0  0.00000000000E+00  0.00000000000E+00  0.39999999673E+01  0.40000000000E+01  0.51109989000E-03 0. -1.
     -623   -1    0    0    0    0  0.00000000000E+00  0.00000000000E+00  0.12525980253E-10  0.17130000000E+03  0.17130000000E+03 0.  1.
       11    1    1    2    0    0  0.38494385548E-02 -0.20537327078E-02  0.47699629396E+00  0.47701652138E+00  0.51109989000E-03 0. -1.
     -623    1    1    2    0    0 -0.68754095270E-03  0.10808333722E-02  0.42190112647E-04  0.17130000000E+03  0.17130000000E+03 0.  1.
      622    1    1    2    0    0 -0.31618976021E-02  0.97289933565E-03  0.35229614833E+01  0.35229834738E+01  0.12000000000E-01 0. -1.
</event>
<event>
 5   0  0.3564000E+09  0.9118800E+02  0.7818608E-02  0.1180000E+00
       11   -1    0    0    0    0  0.00000000000E+00  0.00000000000E+00  0.39999999673E+01  0.40000000000E+01  0.51109989000E-03 0.  1.
     -623   -1    0    0    0    0  0.00000000000E+00  0.00000000000E+00  0.12525980253E-10  0.17130000000E+03  0.17130000000E+03 0. -1.
       11    1    1    2    0    0  0.14507676010E-01  0.15076283046E-01  0.87659547980E+00  0.87684529046E+00  0.51109989000E-03 0.  1.
     -623    1    1    2    0    0 -0.24243571207E-02 -0.76611077397E-03  0.32901100479E-03  0.17130000002E+03  0.17130000000E+03 0. -1.
      622    1    1    2    0    0 -0.12083318889E-01 -0.14310172272E-01  0.31230754765E+01  0.31231546903E+01  0.12000000000E-01 0.  1.
</event>
<event>
 5   0  0.3564000E+09  0.9118800E+02  0.7818608E-02  0.1180000E+00
       11   -1    0    0    0    0  0.00000000000E+00  0.00000000000E+00  0.39999999673E+01  0.40000000000E+01  0.51109989000E-03 0.  1.
     -623   -1    0    0    0    0  0.00000000000E+00  0.00000000000E+00  0.12525980253E-10  0.17130000000E+03  0.17130000000E+03 0.  1.
       11    1    1    2    0    0 -0.13926726204E-03  0.47760222816E-04  0.17467919441E-01  0.17476015252E-01  0.51109989000E-03 0.  1.
     -623    1    1    2    0    0 -0.29291310636E-05 -0.41887988353E-04  0.26144749579E-04  0.17130000000E+03  0.17130000000E+03 0.  1.
      622    1    1    2    0    0  0.14219639310E-03 -0.58722344545E-05  0.39825059039E+01  0.39825239855E+01  0.12000000000E-01 0.  1.
</event>
<event>
 5   0  0.3564000E+09  0.9118800E+02  0.7818608E-02  0.1180000E+00
       11   -1    0    0    0    0  0.00000000000E+00  0.00000000000E+00  0.39999999673E+01  0.40000000000E+01  0.51109989000E-03 0.  1.
     -623   -1    0    0    0    0  0.00000000000E+00  0.00000000000E+00  0.12525980253E-10  0.17130000000E+03  0.17130000000E+03 0.  1.
       11    1    1    2    0    0 -0.66597770843E-02  0.10395896605E-01  0.85590623315E+00  0.85599542549E+00  0.51109989000E-03 0.  1.
     -623    1    1    2    0    0  0.13736341361E-02  0.24320703664E-03  0.13451140853E-03  0.17130000001E+03  0.17130000000E+03 0.  1.
      622    1    1    2    0    0  0.52861429481E-02 -0.10639103641E-01  0.31439592229E+01  0.31440045688E+01  0.12000000000E-01 0.  1.
</event>
<event>
 5   0  0.3564000E+09  0.9118800E+02  0.7818608E-02  0.1180000E+00
       11   -1    0    0    0    0  0.00000000000E+00  0.00000000000E+00  0.39999999673E+01  0.40000000000E+01  0.51109989000E-03 0. -1.
     -623   -1    0    0    0    0  0.00000000000E+00  0.00000000000E+00  0.12525980253E-10  0.17130000000E+03  0.17130000000E+03 0. -1.
       11    1    1    2    0    0  0.55775051978E-03 -0.13746156989E-03  0.15122123075E-01  0.15141658123E-01  0.51109989000E-03 0.  1.
     -623    1    1    2    0    0  0.40667578325E-03  0.40011557076E-04  0.37689235494E-04  0.17130000000E+03  0.17130000000E+03 0. -1.
      622    1    1    2    0    0 -0.96442630371E-03  0.97450012745E-04  0.39848401617E+01  0.39848583481E+01  0.12000000000E-01 0. -1.
</event>
<event>
 5   0  0.3564000E+09  0.9118800E+02  0.7818608E-02  0.1180000E+00
       11   -1    0    0    0    0  0.00000000000E+00  0.00000000000E+00  0.39999999673E+01  0.40000000000E+01  0.51109989000E-03 0. -1.
     -623   -1    0    0    0    0  0.00000000000E+00  0.00000000000E+00  0.12525980253E-10  0.17130000000E+03  0.17130000000E+03 0. -1.
       11    1    1    2    0    0 -0.48109298673E-02 -0.52521679991E-02  0.45809123110E+00  0.45814688425E+00  0.51109989000E-03 0. -1.
     -623    1    1    2    0    0  0.21742303073E-02 -0.90966723062E-03  0.82306554410E-04  0.17130000002E+03  0.17130000000E+03 0. -1.
      622    1    1    2    0    0  0.26366995600E-02  0.61618352298E-02  0.35418264297E+01  0.35418530995E+01  0.12000000000E-01 0. -1.
</event>
<event>
 5   0  0.3564000E+09  0.9118800E+02  0.7818608E-02  0.1180000E+00
       11   -1    0    0    0    0  0.00000000000E+00  0.00000000000E+00  0.39999999673E+01  0.40000000000E+01  0.51109989000E-03 0.  1.
     -623   -1    0    0    0    0  0.00000000000E+00  0.00000000000E+00  0.12525980253E-10  0.17130000000E+03  0.17130000000E+03 0. -1.
       11    1    1    2    0    0  0.32453378604E-03 -0.42192794378E-03  0.74871270550E-01  0.74874907148E-01  0.51109989000E-03 0.  1.
     -623    1    1    2    0    0  0.54885548965E-03  0.20347718728E-03  0.22051616855E-04  0.17130000000E+03  0.17130000000E+03 0. -1.
      622    1    1    2    0    0 -0.87338927569E-03  0.21845075650E-03  0.39251066452E+01  0.39251250919E+01  0.12000000000E-01 0.  1.
</event>
<event>
 5   0  0.3564000E+09  0.9118800E+02  0.7818608E-02  0.1180000E+00
       11   -1    0    0    0    0  0.00000000000E+00  0.00000000000E+00  0.39999999673E+01  0.40000000000E+01  0.51109989000E-03 0. -1.
     -623   -1    0    0    0    0  0.00000000000E+00  0.00000000000E+00  0.12525980253E-10  0.17130000000E+03  0.17130000000E+03 0. -1.
       11    1    1    2    0    0 -0.17174305743E-03 -0.18794705811E-02  0.14091005545E+00  0.14092362063E+00  0.51109989000E-03 0. -1.
     -623    1    1    2    0    0 -0.81024313142E-04  0.59327070575E-04  0.32627452569E-04  0.17130000000E+03  0.17130000000E+03 0. -1.
      622    1    1    2    0    0  0.25276737057E-03  0.18201435105E-02  0.38590572845E+01  0.38590763793E+01  0.12000000000E-01 0. -1.
</event>
<event>
 5   0  0.3564000E+09  0.9118800E+02  0.7818608E-02  0.1180000E+00
       11   -1    0    0    0    0  0.00000000000E+00  0.00000000000E+00  0.39999999673E+01  0.40000000000E+01  0.51109989000E-03 0. -1.
     -623   -1    0    0    0    0  0.00000000000E+00  0.00000000000E+00  0.12525980253E-10  0.17130000000E+03  0.17130000000E+03 0.  1.
       11    1    1    2    0    0  0.50279413699E-02 -0.95659252889E-02  0.53293235044E+00  0.53304215452E+00  0.51109989000E-03 0. -1.
     -623    1    1    2    0    0  0.15372012165E-02  0.50341658675E-02  0.13979775530E-03  0.17130000008E+03  0.17130000000E+03 0.  1.
      622    1    1    2    0    0 -0.65651425865E-02  0.45317594214E-02  0.34669278192E+01  0.34669577646E+01  0.12000000000E-01 0. -1.
</event>
<event>
 5   0  0.3564000E+09  0.9118800E+02  0.7818608E-02  0.1180000E+00
       11   -1    0    0    0    0  0.00000000000E+00  0.00000000000E+00  0.39999999673E+01  0.40000000000E+01  0.51109989000E-03 0. -1.
     -623   -1    0    0    0    0  0.00000000000E+00  0.00000000000E+00  0.12525980253E-10  0.17130000000E+03  0.17130000000E+03 0. -1.
       11    1    1    2    0    0  0.32361307489E-02 -0.21641736589E-04  0.11982464534E-01  0.12422306146E-01  0.51109989000E-03 0. -1.
     -623    1    1    2    0    0 -0.39041585386E-02  0.16772732012E-02  0.45831806810E-03  0.17130000005E+03  0.17130000000E+03 0. -1.
      622    1    1    2    0    0  0.66802778998E-03 -0.16556314647E-02  0.39875591850E+01  0.39875776408E+01  0.12000000000E-01 0. -1.
</event>
<event>
 5   0  0.3564000E+09  0.9118800E+02  0.7818608E-02  0.1180000E+00
       11   -1    0    0    0    0  0.00000000000E+00  0.00000000000E+00  0.39999999673E+01  0.40000000000E+01  0.51109989000E-03 0.  1.
     -623   -1    0    0    0    0  0.00000000000E+00  0.00000000000E+00  0.12525980253E-10  0.17130000000E+03  0.17130000000E+03 0. -1.
       11    1    1    2    0    0  0.11074438374E-02 -0.29517147594E-03  0.18138608405E-01  0.18181966231E-01  0.51109989000E-03 0.  1.
     -623    1    1    2    0    0  0.32769382800E-03  0.17224639041E-03  0.61668357143E-04  0.17130000000E+03  0.17130000000E+03 0. -1.
      622    1    1    2    0    0 -0.14351376654E-02  0.12292508550E-03  0.39817996913E+01  0.39818180340E+01  0.12000000000E-01 0.  1.
</event>
<event>
 5   0  0.3564000E+09  0.9118800E+02  0.7818608E-02  0.1180000E+00
       11   -1    0    0    0    0  0.00000000000E+00  0.00000000000E+00  0.39999999673E+01  0.40000000000E+01  0.51109989000E-03 0.  1.
     -623   -1    0    0    0    0  0.00000000000E+00  0.00000000000E+00  0.12525980253E-10  0.17130000000E+03  0.17130000000E+03 0.  1.
       11    1    1    2    0    0 -0.12341391877E-02  0.15402451128E-03  0.12569970292E+00  0.12570689464E+00  0.51109989000E-03 0.  1.
     -623    1    1    2    0    0  0.71117178183E-04 -0.33254997542E-04  0.25919627556E-04  0.17130000000E+03  0.17130000000E+03 0.  1.
      622    1    1    2    0    0  0.11630220093E-02 -0.12076951363E-03  0.38742743575E+01  0.38742931180E+01  0.12000000000E-01 0.  1.
</event>
<event>
 5   0  0.3564000E+09  0.9118800E+02  0.7818608E-02  0.1180000E+00
       11   -1    0    0    0    0  0.00000000000E+00  0.00000000000E+00  0.39999999673E+01  0.40000000000E+01  0.51109989000E-03 0. -1.
     -623   -1    0    0    0    0  0.00000000000E+00  0.00000000000E+00  0.12525980253E-10  0.17130000000E+03  0.17130000000E+03 0. -1.
       11    1    1    2    0    0  0.16867828826E-02 -0.40503155291E-02  0.85369758696E+00  0.85370901453E+00  0.51109989000E-03 0. -1.
     -623    1    1    2    0    0 -0.43571844729E-02  0.48098017820E-02  0.35626971964E-04  0.17130000012E+03  0.17130000000E+03 0. -1.
      622    1    1    2    0    0  0.26704015833E-02 -0.75948624518E-03  0.31462667470E+01  0.31462908561E+01  0.12000000000E-01 0. -1.
</event>
<event>
 5   0  0.3564000E+09  0.9118800E+02  0.7818608E-02  0.1180000E+00
       11   -1    0    0    0    0  0.00000000000E+00  0.00000000000E+00  0.39999999673E+01  0.40000000000E+01  0.51109989000E-03 0. -1.
     -623   -1    0    0    0    0  0.00000000000E+00  0.00000000000E+00  0.12525980253E-10  0.17130000000E+03  0.17130000000E+03 0.  1.
       11    1    1    2    0    0  0.95092746769E-03 -0.40023160301E-03  0.12759498652E+00  0.12760018125E+00  0.51109989000E-03 0. -1.
     -623    1    1    2    0    0 -0.20487926810E-04 -0.54934760283E-05  0.23888300580E-04  0.17130000000E+03  0.17130000000E+03 0.  1.
      622    1    1    2    0    0 -0.93043954090E-03  0.40572507904E-03  0.38723810884E+01  0.38723998146E+01  0.12000000000E-01 0. -1.
</event>
<event>
 5   0  0.3564000E+09  0.9118800E+02  0.7818608E-02  0.1180000E+00
       11   -1    0    0    0    0  0.00000000000E+00  0.00000000000E+00  0.39999999673E+01  0.40000000000E+01  0.51109989000E-03 0.  1.
     -623   -1    0    0    0    0  0.00000000000E+00  0.00000000000E+00  0.12525980253E-10  0.17130000000E+03  0.17130000000E+03 0.  1.
       11    1    1    2    0    0  0.10281478260E-02  0.46451833339E-03  0.10223746719E+00  0.10224496948E+00  0.51109989000E-03 0.  1.
     -623    1    1    2    0    0  0.71218553227E-04 -0.91963701108E-05  0.26123525385E-04  0.17130000000E+03  0.17130000000E+03 0.  1.
      622    1    1    2    0    0 -0.10993663791E-02 -0.45532196329E-03  0.38977363711E+01  0.38977550250E+01  0.12000000000E-01 0.  1.
</event>
<event>
 5   0  0.3564000E+09  0.9118800E+02  0.7818608E-02  0.1180000E+00
       11   -1    0    0    0    0  0.00000000000E+00  0.00000000000E+00  0.39999999673E+01  0.40000000000E+01  0.51109989000E-03 0.  1.
     -623   -1    0    0    0    0  0.00000000000E+00  0.00000000000E+00  0.12525980253E-10  0.17130000000E+03  0.17130000000E+03 0.  1.
       11    1    1    2    0    0  0.20285587168E-01  0.23321037580E-01  0.44360802408E+00  0.44468383835E+00  0.51109989000E-03 0.  1.
     -623    1    1    2    0    0 -0.97989767603E-02 -0.31177207807E-01  0.11232997502E-02  0.17130000312E+03  0.17130000000E+03 0.  1.
      622    1    1    2    0    0 -0.10486610408E-01  0.78561702268E-02  0.35552686435E+01  0.35553130405E+01  0.12000000000E-01 0.  1.
</event>
<event>
 5   0  0.3564000E+09  0.9118800E+02  0.7818608E-02  0.1180000E+00
       11   -1    0    0    0    0  0.00000000000E+00  0.00000000000E+00  0.39999999673E+01  0.40000000000E+01  0.51109989000E-03 0. -1.
     -623   -1    0    0    0    0  0.00000000000E+00  0.00000000000E+00  0.12525980253E-10  0.17130000000E+03  0.17130000000E+03 0. -1.
       11    1    1    2    0    0 -0.99305877072E-02 -0.77572964432E-02  0.47820937899E+00  0.47837565114E+00  0.51109989000E-03 0. -1.
     -623    1    1    2    0    0 -0.33775017884E-03 -0.71220003415E-04  0.21035688968E-03  0.17130000000E+03  0.17130000000E+03 0. -1.
      622    1    1    2    0    0  0.10268337886E-01  0.78285164466E-02  0.35215802315E+01  0.35216243484E+01  0.12000000000E-01 0. -1.
</event>
<event>
 5   0  0.3564000E+09  0.9118800E+02  0.7818608E-02  0.1180000E+00
       11   -1    0    0    0    0  0.00000000000E+00  0.00000000000E+00  0.39999999673E+01  0.40000000000E+01  0.51109989000E-03 0. -1.
     -623   -1    0    0    0    0  0.00000000000E+00  0.00000000000E+00  0.12525980253E-10  0.17130000000E+03  0.17130000000E+03 0. -1.
       11    1    1    2    0    0  0.80167415325E-04  0.85250656266E-03  0.11640211128E+00  0.11640638267E+00  0.51109989000E-03 0. -1.
     -623    1    1    2    0    0 -0.12809256936E-02  0.22091685208E-02  0.24189851625E-04  0.17130000002E+03  0.17130000000E+03 0. -1.
      622    1    1    2    0    0  0.12007582782E-02 -0.30616750834E-02  0.38835736662E+01  0.38835935983E+01  0.12000000000E-01 0. -1.
</event>
<event>
 5   0  0.3564000E+09  0.9118800E+02  0.7818608E-02  0.1180000E+00
       11   -1    0    0    0    0  0.00000000000E+00  0.00000000000E+00  0.39999999673E+01  0.40000000000E+01  0.51109989000E-03 0.  1.
     -623   -1    0    0    0    0  0.00000000000E+00  0.00000000000E+00  0.12525980253E-10  0.17130000000E+03  0.17130000000E+03 0.  1.
       11    1    1    2    0    0  0.94705981951E-03 -0.17557183126E-03  0.78893863706E-01  0.78901398598E-01  0.51109989000E-03 0.  1.
     -623    1    1    2    0    0 -0.15778368100E-02  0.14351067608E-02  0.26130806738E-04  0.17130000001E+03  0.17130000000E+03 0.  1.
      622    1    1    2    0    0  0.63077699053E-03 -0.12595349295E-02  0.39210799728E+01  0.39210985881E+01  0.12000000000E-01 0.  1.
</event>
<event>
 5   0  0.3564000E+09  0.9118800E+02  0.7818608E-02  0.1180000E+00
       11   -1    0    0    0    0  0.00000000000E+00  0.00000000000E+00  0.39999999673E+01  0.40000000000E+01  0.51109989000E-03 0. -1.
     -623   -1    0    0    0    0  0.00000000000E+00  0.00000000000E+00  0.12525980253E-10  0.17130000000E+03  0.17130000000E+03 0. -1.
       11    1    1    2    0    0 -0.24451057333E-02  0.68456563567E-02  0.19627521793E+00  0.19641044766E+00  0.51109989000E-03 0. -1.
     -623    1    1    2    0    0 -0.19657106956E-02 -0.70122223847E-02  0.15684264541E-03  0.17130000015E+03  0.17130000000E+03 0. -1.
      622    1    1    2    0    0  0.44108164289E-02  0.16656602808E-03  0.38035679068E+01  0.38035893975E+01  0.12000000000E-01 0. -1.
</event>
<event>
 5   0  0.3564000E+09  0.9118800E+02  0.7818608E-02  0.1180000E+00
       11   -1    0    0    0    0  0.00000000000E+00  0.00000000000E+00  0.39999999673E+01  0.40000000000E+01  0.51109989000E-03 0.  1.
     -623   -1    0    0    0    0  0.00000000000E+00  0.00000000000E+00  0.12525980253E-10  0.17130000000E+03  0.17130000000E+03 0. -1.
       11    1    1    2    0    0 -0.24079928392E-02 -0.22064496361E-02  0.15804367898E+00  0.15807824815E+00  0.51109989000E-03 0.  1.
     -623    1    1    2    0    0  0.16065680607E-02  0.24357310887E-02  0.53392486512E-04  0.17130000002E+03  0.17130000000E+03 0. -1.
      622    1    1    2    0    0  0.80142478050E-03 -0.22928144965E-03  0.38419028911E+01  0.38419217222E+01  0.12000000000E-01 0.  1.
</event>
<event>
 5   0  0.3564000E+09  0.9118800E+02  0.7818608E-02  0.1180000E+00
       11   -1    0    0    0    0  0.00000000000E+00  0.00000000000E+00  0.39999999673E+01  0.40000000000E+01  0.51109989000E-03 0. -1.
     -623   -1    0    0    0    0  0.00000000000E+00  0.00000000000E+00  0.12525980253E-10  0.17130000000E+03  0.17130000000E+03 0.  1.
       11    1    1    2    0    0  0.19131752221E-03 -0.45397489800E-04  0.15253960598E-01  0.15263787222E-01  0.51109989000E-03 0. -1.
     -623    1    1    2    0    0 -0.27951113246E-03 -0.33175159138E-03  0.27882350750E-04  0.17130000000E+03  0.17130000000E+03 0.  1.
      622    1    1    2    0    0  0.88193609470E-04  0.37714908026E-03  0.39847181133E+01  0.39847362011E+01  0.12000000000E-01 0. -1.
</event>
<event>
 5   0  0.3564000E+09  0.9118800E+02  0.7818608E-02  0.1180000E+00
       11   -1    0    0    0    0  0.00000000000E+00  0.00000000000E+00  0.39999999673E+01  0.40000000000E+01  0.51109989000E-03 0. -1.
     -623   -1    0    0    0    0  0.00000000000E+00  0.00000000000E+00  0.12525980253E-10  0.17130000000E+03  0.17130000000E+03 0. -1.
       11    1    1    2    0    0  0.11769502644E-02  0.52248594879E-03  0.32877781139E+00  0.32878073041E+00  0.51109989000E-03 0. -1.
     -623    1    1    2    0    0 -0.23052131739E-03  0.23703337338E-03  0.22699325675E-04  0.17130000000E+03  0.17130000000E+03 0. -1.
      622    1    1    2    0    0 -0.94642894702E-03 -0.75951932217E-03  0.36711994566E+01  0.36712192693E+01  0.12000000000E-01 0. -1.
</event>
<event>
 5   0  0.3564000E+09  0.9118800E+02  0.7818608E-02  0.1180000E+00
       11   -1    0    0    0    0  0.00000000000E+00  0.00000000000E+00  0.39999999673E+01  0.40000000000E+01  0.51109989000E-03 0. -1.
     -623   -1    0    0    0    0  0.00000000000E+00  0.00000000000E+00  0.12525980253E-10  0.17130000000E+03  0.17130000000E+03 0. -1.
       11    1    1    2    0    0  0.62668459162E-03  0.17576179627E-02  0.28318662352E+00  0.28319323248E+00  0.51109989000E-03 0. -1.
     -623    1    1    2    0    0  0.33031317527E-04 -0.26886563013E-04  0.26409345498E-04  0.17130000000E+03  0.17130000000E+03 0. -1.
      622    1    1    2    0    0 -0.65971590924E-03 -0.17307313996E-02  0.37167869449E+01  0.37168067779E+01  0.12000000000E-01 0. -1.
</event>
<event>
 5   0  0.3564000E+09  0.9118800E+02  0.7818608E-02  0.1180000E+00
       11   -1    0    0    0    0  0.00000000000E+00  0.00000000000E+00  0.39999999673E+01  0.40000000000E+01  0.51109989000E-03 0. -1.
     -623   -1    0    0    0    0  0.00000000000E+00  0.00000000000E+00  0.12525980253E-10  0.17130000000E+03  0.17130000000E+03 0.  1.
       11    1    1    2    0    0  0.12678004515E-02 -0.10502263502E-03  0.11610993480E+00  0.11611802845E+00  0.51109989000E-03 0. -1.
     -623    1    1    2    0    0 -0.42061672575E-02  0.33192187374E-02  0.29124524007E-04  0.17130000008E+03  0.17130000000E+03 0.  1.
      622    1    1    2    0    0  0.29383667978E-02 -0.32141960958E-02  0.38838609002E+01  0.38838818799E+01  0.12000000000E-01 0. -1.
</event>
<event>
 5   0  0.3564000E+09  0.9118800E+02  0.7818608E-02  0.1180000E+00
       11   -1    0    0    0    0  0.00000000000E+00  0.00000000000E+00  0.39999999673E+01  0.40000000000E+01  0.51109989000E-03 0. -1.
     -623   -1    0    0    0    0  0.00000000000E+00  0.00000000000E+00  0.12525980253E-10  0.17130000000E+03  0.17130000000E+03 0. -1.
       11    1    1    2    0    0 -0.45767172008E-03 -0.12155127105E-02  0.23043577303E-01  0.23085809749E-01  0.51109989000E-03 0. -1.
     -623    1    1    2    0    0  0.18242883198E-02  0.25534635005E-02  0.60792968145E-04  0.17130000003E+03  0.17130000000E+03 0. -1.
      622    1    1    2    0    0 -0.13666165997E-02 -0.13379507900E-02  0.39768955971E+01  0.39769141615E+01  0.12000000000E-01 0. -1.
</event>
<event>
 5   0  0.3564000E+09  0.9118800E+02  0.7818608E-02  0.1180000E+00
       11   -1    0    0    0    0  0.00000000000E+00  0.00000000000E+00  0.39999999673E+01  0.40000000000E+01  0.51109989000E-03 0.  1.
     -623   -1    0    0    0    0  0.00000000000E+00  0.00000000000E+00  0.12525980253E-10  0.17130000000E+03  0.17130000000E+03 0. -1.
       11    1    1    2    0    0 -0.44290778741E-02 -0.11805167978E-03  0.59057194988E-02  0.74006359801E-02  0.51109989000E-03 0.  1.
     -623    1    1    2    0    0  0.64950336554E-03 -0.17762740034E-02  0.15151727470E-02  0.17130000002E+03  0.17130000000E+03 0. -1.
      622    1    1    2    0    0  0.37795745085E-02  0.18943256832E-02  0.39925790752E+01  0.39925993469E+01  0.12000000000E-01 0.  1.
</event>
<event>
 5   0  0.3564000E+09  0.9118800E+02  0.7818608E-02  0.1180000E+00
       11   -1    0    0    0    0  0.00000000000E+00  0.00000000000E+00  0.39999999673E+01  0.40000000000E+01  0.51109989000E-03 0.  1.
     -623   -1    0    0    0    0  0.00000000000E+00  0.00000000000E+00  0.12525980253E-10  0.17130000000E+03  0.17130000000E+03 0.  1.
       11    1    1    2    0    0  0.20059564357E-03 -0.27525946010E-02  0.35209431661E+00  0.35210550412E+00  0.51109989000E-03 0.  1.
     -623    1    1    2    0    0  0.24252317788E-02  0.87287366158E-03  0.32341095392E-04  0.17130000002E+03  0.17130000000E+03 0.  1.
      622    1    1    2    0    0 -0.26258274257E-02  0.18797209382E-02  0.36478733153E+01  0.36478944821E+01  0.12000000000E-01 0.  1.
</event>
<event>
 5   0  0.3564000E+09  0.9118800E+02  0.7818608E-02  0.1180000E+00
       11   -1    0    0    0    0  0.00000000000E+00  0.00000000000E+00  0.39999999673E+01  0.40000000000E+01  0.51109989000E-03 0. -1.
     -623   -1    0    0    0    0  0.00000000000E+00  0.00000000000E+00  0.12525980253E-10  0.17130000000E+03  0.17130000000E+03 0.  1.
       11    1    1    2    0    0 -0.73060180984E-03  0.16515813176E-02  0.42395466087E+00  0.42395881545E+00  0.51109989000E-03 0. -1.
     -623    1    1    2    0    0 -0.12980520384E-03  0.10822281737E-02  0.25407946136E-04  0.17130000000E+03  0.17130000000E+03 0.  1.
      622    1    1    2    0    0  0.86040701411E-03 -0.27338094948E-02  0.35760199117E+01  0.35760411942E+01  0.12000000000E-01 0. -1.
</event>
<event>
 5   0  0.3564000E+09  0.9118800E+02  0.7818608E-02  0.1180000E+00
       11   -1    0    0    0    0  0.00000000000E+00  0.00000000000E+00  0.39999999673E+01  0.40000000000E+01  0.51109989000E-03 0. -1.
     -623   -1    0    0    0    0  0.00000000000E+00  0.00000000000E+00  0.12525980253E-10  0.17130000000E+03  0.17130000000E+03 0.  1.
       11    1    1    2    0    0 -0.32291247062E-02 -0.15285864579E-02  0.57664284680E+00  0.57665414055E+00  0.51109989000E-03 0. -1.
     -623    1    1    2    0    0  0.17471133745E-02  0.13285550518E-01  0.53327084224E-04  0.17130000052E+03  0.17130000000E+03 0.  1.
      622    1    1    2    0    0  0.14820113317E-02 -0.11756964060E-01  0.34233037935E+01  0.34233453353E+01  0.12000000000E-01 0. -1.
</event>
<event>
 5   0  0.3564000E+09  0.9118800E+02  0.7818608E-02  0.1180000E+00
       11   -1    0    0    0    0  0.00000000000E+00  0.00000000000E+00  0.39999999673E+01  0.40000000000E+01  0.51109989000E-03 0.  1.
     -623   -1    0    0    0    0  0.00000000000E+00  0.00000000000E+00  0.12525980253E-10  0.17130000000E+03  0.17130000000E+03 0. -1.
       11    1    1    2    0    0  0.11312593328E-02 -0.14712190315E-02  0.55937964121E-01  0.55971075433E-01  0.51109989000E-03 0. -1.
     -623    1    1    2    0    0 -0.13487832731E-03  0.95424284283E-04  0.51700064412E-04  0.17130000000E+03  0.17130000000E+03 0. -1.
      622    1    1    2    0    0 -0.99638100544E-03  0.13757947472E-02  0.39440103032E+01  0.39440289245E+01  0.12000000000E-01 0.  1.
</event>
<event>
 5   0  0.3564000E+09  0.9118800E+02  0.7818608E-02  0.1180000E+00
       11   -1    0    0    0    0  0.00000000000E+00  0.00000000000E+00  0.39999999673E+01  0.40000000000E+01  0.51109989000E-03 0. -1.
     -623   -1    0    0    0    0  0.00000000000E+00  0.00000000000E+00  0.12525980253E-10  0.17130000000E+03  0.17130000000E+03 0.  1.
       11    1    1    2    0    0  0.59034818607E-04  0.17377007735E-02  0.20069087156E+00  0.20069905391E+00  0.51109989000E-03 0. -1.
     -623    1    1    2    0    0  0.58892198343E-04 -0.17304796375E-04  0.27491969563E-04  0.17130000000E+03  0.17130000000E+03 0.  1.
      622    1    1    2    0    0 -0.11792701693E-03 -0.17203959771E-02  0.37992816025E+01  0.37993009447E+01  0.12000000000E-01 0. -1.
</event>
<event>
 5   0  0.3564000E+09  0.9118800E+02  0.7818608E-02  0.1180000E+00
       11   -1    0    0    0    0  0.00000000000E+00  0.00000000000E+00  0.39999999673E+01  0.40000000000E+01  0.51109989000E-03 0. -1.
     -623   -1    0    0    0    0  0.00000000000E+00  0.00000000000E+00  0.12525980253E-10  0.17130000000E+03  0.17130000000E+03 0.  1.
       11    1    1    2    0    0 -0.50437448305E-02 -0.21716445692E-02  0.99905143018E-01  0.10005725473E+00  0.51109989000E-03 0. -1.
     -623    1    1    2    0    0  0.84328010498E-03 -0.11411473276E-02  0.17421600014E-03  0.17130000001E+03  0.17130000000E+03 0.  1.
      622    1    1    2    0    0  0.42004647255E-02  0.33127918968E-02  0.38999206083E+01  0.38999427393E+01  0.12000000000E-01 0. -1.
</event>
<event>
 5   0  0.3564000E+09  0.9118800E+02  0.7818608E-02  0.1180000E+00
       11   -1    0    0    0    0  0.00000000000E+00  0.00000000000E+00  0.39999999673E+01  0.40000000000E+01  0.51109989000E-03 0. -1.
     -623   -1    0    0    0    0  0.00000000000E+00  0.00000000000E+00  0.12525980253E-10  0.17130000000E+03  0.17130000000E+03 0. -1.
       11    1    1    2    0    0  0.40958683468E-03  0.34390653953E-03  0.75276780447E-02  0.75639403042E-02  0.51109989000E-03 0.  1.
     -623    1    1    2    0    0 -0.10768819436E-03  0.19658317632E-04  0.54291774184E-04  0.17130000000E+03  0.17130000000E+03 0. -1.
      622    1    1    2    0    0 -0.30189864031E-03 -0.36356485716E-03  0.39924179976E+01  0.39924360597E+01  0.12000000000E-01 0. -1.
</event>
<event>
 5   0  0.3564000E+09  0.9118800E+02  0.7818608E-02  0.1180000E+00
       11   -1    0    0    0    0  0.00000000000E+00  0.00000000000E+00  0.39999999673E+01  0.40000000000E+01  0.51109989000E-03 0.  1.
     -623   -1    0    0    0    0  0.00000000000E+00  0.00000000000E+00  0.12525980253E-10  0.17130000000E+03  0.17130000000E+03 0.  1.
       11    1    1    2    0    0  0.22030460963E-02 -0.52426409977E-02  0.56651603478E+00  0.56654480633E+00  0.51109989000E-03 0.  1.
     -623    1    1    2    0    0 -0.12676397235E-02 -0.14728288189E-03  0.54071936991E-04  0.17130000000E+03  0.17130000000E+03 0.  1.
      622    1    1    2    0    0 -0.93540637246E-03  0.53899238797E-02  0.34334298619E+01  0.34334551902E+01  0.12000000000E-01 0.  1.
</event>
<event>
 5   0  0.3564000E+09  0.9118800E+02  0.7818608E-02  0.1180000E+00
       11   -1    0    0    0    0  0.00000000000E+00  0.00000000000E+00  0.39999999673E+01  0.40000000000E+01  0.51109989000E-03 0.  1.
     -623   -1    0    0    0    0  0.00000000000E+00  0.00000000000E+00  0.12525980253E-10  0.17130000000E+03  0.17130000000E+03 0.  1.
       11    1    1    2    0    0 -0.17786929481E-03  0.18485169699E-03  0.26415752129E-02  0.27027671633E-02  0.51109989000E-03 0. -1.
     -623    1    1    2    0    0 -0.10687516207E-03  0.38972951681E-05  0.79186171274E-04  0.17130000000E+03  0.17130000000E+03 0.  1.
      622    1    1    2    0    0  0.28474445696E-03 -0.18874899216E-03  0.39972792085E+01  0.39972972354E+01  0.12000000000E-01 0.  1.
</event>
<event>
 5   0  0.3564000E+09  0.9118800E+02  0.7818608E-02  0.1180000E+00
       11   -1    0    0    0    0  0.00000000000E+00  0.00000000000E+00  0.39999999673E+01  0.40000000000E+01  0.51109989000E-03 0.  1.
     -623   -1    0    0    0    0  0.00000000000E+00  0.00000000000E+00  0.12525980253E-10  0.17130000000E+03  0.17130000000E+03 0. -1.
       11    1    1    2    0    0 -0.12988182495E-02 -0.25106493789E-02  0.16137635028E+00  0.16140191430E+00  0.51109989000E-03 0.  1.
     -623    1    1    2    0    0  0.10783362247E-02  0.29471554151E-03  0.44937872893E-04  0.17130000000E+03  0.17130000000E+03 0. -1.
      622    1    1    2    0    0  0.22048202576E-03  0.22159338376E-02  0.38385786760E+01  0.38385980788E+01  0.12000000000E-01 0.  1.
</event>
<event>
 5   0  0.3564000E+09  0.9118800E+02  0.7818608E-02  0.1180000E+00
       11   -1    0    0    0    0  0.00000000000E+00  0.00000000000E+00  0.39999999673E+01  0.40000000000E+01  0.51109989000E-03 0. -1.
     -623   -1    0    0    0    0  0.00000000000E+00  0.00000000000E+00  0.12525980253E-10  0.17130000000E+03  0.17130000000E+03 0. -1.
       11    1    1    2    0    0  0.19290592223E-02 -0.56300758417E-02  0.44632810146E+00  0.44636807054E+00  0.51109989000E-03 0. -1.
     -623    1    1    2    0    0  0.88304727045E-02  0.25163958643E-02  0.78096432265E-04  0.17130000025E+03  0.17130000000E+03 0. -1.
      622    1    1    2    0    0 -0.10759531928E-01  0.31136799770E-02  0.35535937701E+01  0.35536316840E+01  0.12000000000E-01 0. -1.
</event>
<event>
 5   0  0.3564000E+09  0.9118800E+02  0.7818608E-02  0.1180000E+00
       11   -1    0    0    0    0  0.00000000000E+00  0.00000000000E+00  0.39999999673E+01  0.40000000000E+01  0.51109989000E-03 0. -1.
     -623   -1    0    0    0    0  0.00000000000E+00  0.00000000000E+00  0.12525980253E-10  0.17130000000E+03  0.17130000000E+03 0.  1.
       11    1    1    2    0    0 -0.25119543255E-02  0.56168253126E-02  0.66297408823E+00  0.66300283674E+00  0.51109989000E-03 0.  1.
     -623    1    1    2    0    0  0.14600957402E-02 -0.64333388616E-03  0.54171739723E-04  0.17130000001E+03  0.17130000000E+03 0.  1.
      622    1    1    2    0    0  0.10518585853E-02 -0.49734914265E-02  0.33369717074E+01  0.33369971558E+01  0.12000000000E-01 0. -1.
</event>
<event>
 5   0  0.3564000E+09  0.9118800E+02  0.7818608E-02  0.1180000E+00
       11   -1    0    0    0    0  0.00000000000E+00  0.00000000000E+00  0.39999999673E+01  0.40000000000E+01  0.51109989000E-03 0. -1.
     -623   -1    0    0    0    0  0.00000000000E+00  0.00000000000E+00  0.12525980253E-10  0.17130000000E+03  0.17130000000E+03 0.  1.
       11    1    1    2    0    0  0.30664468950E-02  0.19906453338E-03  0.31505707428E+00  0.31507247420E+00  0.51109989000E-03 0. -1.
     -623    1    1    2    0    0  0.16308789196E-04 -0.12825145510E-03  0.36196621306E-04  0.17130000000E+03  0.17130000000E+03 0.  1.
      622    1    1    2    0    0 -0.30827556842E-02 -0.70813078283E-04  0.36849066965E+01  0.36849275257E+01  0.12000000000E-01 0. -1.
</event>
<event>
 5   0  0.3564000E+09  0.9118800E+02  0.7818608E-02  0.1180000E+00
       11   -1    0    0    0    0  0.00000000000E+00  0.00000000000E+00  0.39999999673E+01  0.40000000000E+01  0.51109989000E-03 0. -1.
     -623   -1    0    0    0    0  0.00000000000E+00  0.00000000000E+00  0.12525980253E-10  0.17130000000E+03  0.17130000000E+03 0. -1.
       11    1    1    2    0    0  0.32823201484E-02  0.18622137762E-02  0.35218679552E+00  0.35220738440E+00  0.51109989000E-03 0. -1.
     -623    1    1    2    0    0  0.15354272560E-02  0.30937598955E-02  0.46877245987E-04  0.17130000003E+03  0.17130000000E+03 0. -1.
      622    1    1    2    0    0 -0.48177474050E-02 -0.49559736731E-02  0.36477662964E+01  0.36477925826E+01  0.12000000000E-01 0. -1.
</event>
<event>
 5   0  0.3564000E+09  0.9118800E+02  0.7818608E-02  0.1180000E+00
       11   -1    0    0    0    0  0.00000000000E+00  0.00000000000E+00  0.39999999673E+01  0.40000000000E+01  0.51109989000E-03 0. -1.
     -623   -1    0    0    0    0  0.00000000000E+00  0.00000000000E+00  0.12525980253E-10  0.17130000000E+03  0.17130000000E+03 0. -1.
       11    1    1    2    0    0 -0.11297616874E-01  0.76730654129E-02  0.78261052782E-01  0.79445362895E-01  0.51109989000E-03 0. -1.
     -623    1    1    2    0    0  0.51565591903E-02 -0.41985108674E-02  0.12091248765E-02  0.17130000013E+03  0.17130000000E+03 0. -1.
      622    1    1    2    0    0  0.61410576833E-02 -0.34745545456E-02  0.39205297896E+01  0.39205545037E+01  0.12000000000E-01 0. -1.
</event>
<event>
 5   0  0.3564000E+09  0.9118800E+02  0.7818608E-02  0.1180000E+00
       11   -1    0    0    0    0  0.00000000000E+00  0.00000000000E+00  0.39999999673E+01  0.40000000000E+01  0.51109989000E-03 0.  1.
     -623   -1    0    0    0    0  0.00000000000E+00  0.00000000000E+00  0.12525980253E-10  0.17130000000E+03  0.17130000000E+03 0. -1.
       11    1    1    2    0    0  0.28232849121E-02 -0.87525480273E-03  0.17493980970E-01  0.17749298618E-01  0.51109989000E-03 0. -1.
     -623    1    1    2    0    0 -0.29580773901E-02  0.19238658048E-02  0.27354218231E-03  0.17130000004E+03  0.17130000000E+03 0. -1.
      622    1    1    2    0    0  0.13479247799E-03 -0.10486110021E-02  0.39822324442E+01  0.39822506648E+01  0.12000000000E-01 0.  1.
</event>
<event>
 5   0  0.3564000E+09  0.9118800E+02  0.7818608E-02  0.1180000E+00
       11   -1    0    0    0    0  0.00000000000E+00  0.00000000000E+00  0.39999999673E+01  0.40000000000E+01  0.51109989000E-03 0.  1.
     -623   -1    0    0    0    0  0.00000000000E+00  0.00000000000E+00  0.12525980253E-10  0.17130000000E+03  0.17130000000E+03 0.  1.
       11    1    1    2    0    0 -0.74516028180E-03  0.16414279045E-02  0.35877740842E+00  0.35878230107E+00  0.51109989000E-03 0.  1.
     -623    1    1    2    0    0  0.23723782536E-02 -0.10211793128E-02  0.25069569084E-04  0.17130000002E+03  0.17130000000E+03 0.  1.
      622    1    1    2    0    0 -0.16272179771E-02 -0.62024858939E-03  0.36411974982E+01  0.36412176882E+01  0.12000000000E-01 0.  1.
</event>
<event>
 5   0  0.3564000E+09  0.9118800E+02  0.7818608E-02  0.1180000E+00
       11   -1    0    0    0    0  0.00000000000E+00  0.00000000000E+00  0.39999999673E+01  0.40000000000E+01  0.51109989000E-03 0.  1.
     -623   -1    0    0    0    0  0.00000000000E+00  0.00000000000E+00  0.12525980253E-10  0.17130000000E+03  0.17130000000E+03 0.  1.
       11    1    1    2    0    0 -0.11474071842E-02 -0.24388802671E-02  0.21158999533E+00  0.21160777875E+00  0.51109989000E-03 0.  1.
     -623    1    1    2    0    0  0.37732306653E-04  0.19726524317E-03  0.37582078824E-04  0.17130000000E+03  0.17130000000E+03 0.  1.
      622    1    1    2    0    0  0.11096748775E-02  0.22416150239E-02  0.37883723899E+01  0.37883922211E+01  0.12000000000E-01 0.  0.
</event>
<event>
 5   0  0.3564000E+09  0.9118800E+02  0.7818608E-02  0.1180000E+00
       11   -1    0    0    0    0  0.00000000000E+00  0.00000000000E+00  0.39999999673E+01  0.40000000000E+01  0.51109989000E-03 0.  1.
     -623   -1    0    0    0    0  0.00000000000E+00  0.00000000000E+00  0.12525980253E-10  0.17130000000E+03  0.17130000000E+03 0.  1.
       11    1    1    2    0    0 -0.20060322665E-02 -0.50392729894E-04  0.12078406920E+00  0.12080181827E+00  0.51109989000E-03 0.  1.
     -623    1    1    2    0    0  0.25961546385E-02  0.12063554238E-02  0.36518055479E-04  0.17130000002E+03  0.17130000000E+03 0.  1.
      622    1    1    2    0    0 -0.59012237204E-03 -0.11559626939E-02  0.38791793801E+01  0.38791981578E+01  0.12000000000E-01 0.  1.
</event>
<event>
 5   0  0.3564000E+09  0.9118800E+02  0.7818608E-02  0.1180000E+00
       11   -1    0    0    0    0  0.00000000000E+00  0.00000000000E+00  0.39999999673E+01  0.40000000000E+01  0.51109989000E-03 0.  1.
     -623   -1    0    0    0    0  0.00000000000E+00  0.00000000000E+00  0.12525980253E-10  0.17130000000E+03  0.17130000000E+03 0. -1.
       11    1    1    2    0    0 -0.92329926294E-04  0.10495414256E-02  0.67454141656E+00  0.67454243301E+00  0.51109989000E-03 0.  1.
     -623    1    1    2    0    0  0.68519794565E-04  0.82241572427E-04  0.22827759029E-04  0.17130000000E+03  0.17130000000E+03 0. -1.
      622    1    1    2    0    0  0.23810131521E-04 -0.11317829982E-02  0.33254357351E+01  0.33254575790E+01  0.12000000000E-01 0.  1.
</event>
<event>
 5   0  0.3564000E+09  0.9118800E+02  0.7818608E-02  0.1180000E+00
       11   -1    0    0    0    0  0.00000000000E+00  0.00000000000E+00  0.39999999673E+01  0.40000000000E+01  0.51109989000E-03 0. -1.
     -623   -1    0    0    0    0  0.00000000000E+00  0.00000000000E+00  0.12525980253E-10  0.17130000000E+03  0.17130000000E+03 0. -1.
       11    1    1    2    0    0 -0.95124761756E-03 -0.11787675704E-03  0.68601080399E-02  0.69455793406E-02  0.51109989000E-03 0. -1.
     -623    1    1    2    0    0  0.13335545129E-03  0.20852672497E-03  0.10355501397E-03  0.17130000000E+03  0.17130000000E+03 0. -1.
      622    1    1    2    0    0  0.81789216609E-03 -0.90649968222E-04  0.39930363098E+01  0.39930544260E+01  0.12000000000E-01 0. -1.
</event>
<event>
 5   0  0.3564000E+09  0.9118800E+02  0.7818608E-02  0.1180000E+00
       11   -1    0    0    0    0  0.00000000000E+00  0.00000000000E+00  0.39999999673E+01  0.40000000000E+01  0.51109989000E-03 0.  1.
     -623   -1    0    0    0    0  0.00000000000E+00  0.00000000000E+00  0.12525980253E-10  0.17130000000E+03  0.17130000000E+03 0.  1.
       11    1    1    2    0    0  0.93815519841E-05  0.14908388276E-03  0.72099270346E-01  0.72101236608E-01  0.51109989000E-03 0.  1.
     -623    1    1    2    0    0  0.12032640871E-03  0.15310391487E-03  0.20277953195E-04  0.17130000000E+03  0.17130000000E+03 0.  1.
      622    1    1    2    0    0 -0.12970796069E-03 -0.30218779763E-03  0.39278804191E+01  0.39278987633E+01  0.12000000000E-01 0.  1.
</event>
<event>
 5   0  0.3564000E+09  0.9118800E+02  0.7818608E-02  0.1180000E+00
       11   -1    0    0    0    0  0.00000000000E+00  0.00000000000E+00  0.39999999673E+01  0.40000000000E+01  0.51109989000E-03 0.  1.
     -623   -1    0    0    0    0  0.00000000000E+00  0.00000000000E+00  0.12525980253E-10  0.17130000000E+03  0.17130000000E+03 0. -1.
       11    1    1    2    0    0  0.25700980925E-03 -0.70469148594E-03  0.24005200208E-01  0.24022354261E-01  0.51109989000E-03 0.  1.
     -623    1    1    2    0    0  0.42709119299E-03 -0.58316975305E-04  0.35362819818E-04  0.17130000000E+03  0.17130000000E+03 0. -1.
      622    1    1    2    0    0 -0.68410100293E-03  0.76300846134E-03  0.39759594108E+01  0.39759776517E+01  0.12000000000E-01 0.  1.
</event>
<event>
 5   0  0.3564000E+09  0.9118800E+02  0.7818608E-02  0.1180000E+00
       11   -1    0    0    0    0  0.00000000000E+00  0.00000000000E+00  0.39999999673E+01  0.40000000000E+01  0.51109989000E-03 0.  1.
     -623   -1    0    0    0    0  0.00000000000E+00  0.00000000000E+00  0.12525980253E-10  0.17130000000E+03  0.17130000000E+03 0.  1.
       11    1    1    2    0    0  0.11213422879E-01  0.48063711690E-02  0.83744695978E+00  0.83753597757E+00  0.51109989000E-03 0.  1.
     -623    1    1    2    0    0 -0.16392452796E-01  0.22878544877E-02  0.12474989476E-03  0.17130000080E+03  0.17130000000E+03 0.  1.
      622    1    1    2    0    0  0.51790299248E-02 -0.70942256577E-02  0.31624282594E+01  0.31624632244E+01  0.12000000000E-01 0.  1.
</event>
<event>
 5   0  0.3564000E+09  0.9118800E+02  0.7818608E-02  0.1180000E+00
       11   -1    0    0    0    0  0.00000000000E+00  0.00000000000E+00  0.39999999673E+01  0.40000000000E+01  0.51109989000E-03 0. -1.
     -623   -1    0    0    0    0  0.00000000000E+00  0.00000000000E+00  0.12525980253E-10  0.17130000000E+03  0.17130000000E+03 0.  1.
       11    1    1    2    0    0 -0.14845617512E-02 -0.29026802412E-02  0.42422987905E+00  0.42424271470E+00  0.51109989000E-03 0. -1.
     -623    1    1    2    0    0  0.44579691476E-03 -0.13563665482E-03  0.34381018397E-04  0.17130000000E+03  0.17130000000E+03 0.  1.
      622    1    1    2    0    0  0.10387648370E-02  0.30383168958E-02  0.35757357024E+01  0.35757572798E+01  0.12000000000E-01 0. -1.
</event>
<event>
 5   0  0.3564000E+09  0.9118800E+02  0.7818608E-02  0.1180000E+00
       11   -1    0    0    0    0  0.00000000000E+00  0.00000000000E+00  0.39999999673E+01  0.40000000000E+01  0.51109989000E-03 0.  1.
     -623   -1    0    0    0    0  0.00000000000E+00  0.00000000000E+00  0.12525980253E-10  0.17130000000E+03  0.17130000000E+03 0.  1.
       11    1    1    2    0    0 -0.71993029878E-02 -0.61472836759E-02  0.49947537641E+00  0.49956534300E+00  0.51109989000E-03 0.  1.
     -623    1    1    2    0    0  0.59433499808E-03  0.41420932399E-03  0.12143085778E-03  0.17130000000E+03  0.17130000000E+03 0.  1.
      622    1    1    2    0    0  0.66049679897E-02  0.57330743519E-02  0.35004031599E+01  0.35004346552E+01  0.12000000000E-01 0.  1.
</event>
<event>
 5   0  0.3564000E+09  0.9118800E+02  0.7818608E-02  0.1180000E+00
       11   -1    0    0    0    0  0.00000000000E+00  0.00000000000E+00  0.39999999673E+01  0.40000000000E+01  0.51109989000E-03 0. -1.
     -623   -1    0    0    0    0  0.00000000000E+00  0.00000000000E+00  0.12525980253E-10  0.17130000000E+03  0.17130000000E+03 0.  1.
       11    1    1    2    0    0  0.13914703321E-02  0.22587611636E-02  0.11659860058E+01  0.11659891360E+01  0.51109989000E-03 0. -1.
     -623    1    1    2    0    0 -0.21029940302E-02 -0.13196368126E-01  0.50220470317E-04  0.17130000052E+03  0.17130000000E+03 0.  1.
      622    1    1    2    0    0  0.71152369814E-03  0.10937606962E-01  0.28339637411E+01  0.28340103428E+01  0.12000000000E-01 0. -1.
</event>
<event>
 5   0  0.3564000E+09  0.9118800E+02  0.7818608E-02  0.1180000E+00
       11   -1    0    0    0    0  0.00000000000E+00  0.00000000000E+00  0.39999999673E+01  0.40000000000E+01  0.51109989000E-03 0. -1.
     -623   -1    0    0    0    0  0.00000000000E+00  0.00000000000E+00  0.12525980253E-10  0.17130000000E+03  0.17130000000E+03 0. -1.
       11    1    1    2    0    0  0.13552253024E-03  0.10220563271E-02  0.42619477670E+00  0.42619633019E+00  0.51109989000E-03 0. -1.
     -623    1    1    2    0    0  0.63140696318E-03 -0.40036293724E-02  0.23041506520E-04  0.17130000005E+03  0.17130000000E+03 0. -1.
      622    1    1    2    0    0 -0.76692949342E-03  0.29815730453E-02  0.35737821492E+01  0.35738036219E+01  0.12000000000E-01 0. -1.
</event>
<event>
 5   0  0.3564000E+09  0.9118800E+02  0.7818608E-02  0.1180000E+00
       11   -1    0    0    0    0  0.00000000000E+00  0.00000000000E+00  0.39999999673E+01  0.40000000000E+01  0.51109989000E-03 0.  1.
     -623   -1    0    0    0    0  0.00000000000E+00  0.00000000000E+00  0.12525980253E-10  0.17130000000E+03  0.17130000000E+03 0.  1.
       11    1    1    2    0    0  0.75011323593E-04  0.81520386209E-03  0.55280680099E-01  0.55289103803E-01  0.51109989000E-03 0.  1.
     -623    1    1    2    0    0 -0.53259613705E-04 -0.10362754579E-03  0.26707675999E-04  0.17130000000E+03  0.17130000000E+03 0.  1.
      622    1    1    2    0    0 -0.21751709908E-04 -0.71157631634E-03  0.39446925781E+01  0.39447108947E+01  0.12000000000E-01 0.  1.
</event>
<event>
 5   0  0.3564000E+09  0.9118800E+02  0.7818608E-02  0.1180000E+00
       11   -1    0    0    0    0  0.00000000000E+00  0.00000000000E+00  0.39999999673E+01  0.40000000000E+01  0.51109989000E-03 0. -1.
     -623   -1    0    0    0    0  0.00000000000E+00  0.00000000000E+00  0.12525980253E-10  0.17130000000E+03  0.17130000000E+03 0.  1.
       11    1    1    2    0    0 -0.50433311259E-02  0.40197361724E-02  0.12374979899E+00  0.12391879373E+00  0.51109989000E-03 0. -1.
     -623    1    1    2    0    0  0.37966732929E-02  0.21526811960E-02  0.19270841167E-03  0.17130000006E+03  0.17130000000E+03 0.  1.
      622    1    1    2    0    0  0.12466578331E-02 -0.61724173684E-02  0.38760574600E+01  0.38760811506E+01  0.12000000000E-01 0. -1.
</event>
<event>
 5   0  0.3564000E+09  0.9118800E+02  0.7818608E-02  0.1180000E+00
       11   -1    0    0    0    0  0.00000000000E+00  0.00000000000E+00  0.39999999673E+01  0.40000000000E+01  0.51109989000E-03 0. -1.
     -623   -1    0    0    0    0  0.00000000000E+00  0.00000000000E+00  0.12525980253E-10  0.17130000000E+03  0.17130000000E+03 0.  1.
       11    1    1    2    0    0 -0.11738829767E-02  0.12841946429E-03  0.11274859613E+00  0.11275593839E+00  0.51109989000E-03 0. -1.
     -623    1    1    2    0    0  0.99804704871E-04  0.10049102156E-03  0.25986980742E-04  0.17130000000E+03  0.17130000000E+03 0.  1.
      622    1    1    2    0    0  0.10740782718E-02 -0.22891048585E-03  0.38872253843E+01  0.38872440615E+01  0.12000000000E-01 0. -1.
</event>
<event>
 5   0  0.3564000E+09  0.9118800E+02  0.7818608E-02  0.1180000E+00
       11   -1    0    0    0    0  0.00000000000E+00  0.00000000000E+00  0.39999999673E+01  0.40000000000E+01  0.51109989000E-03 0.  1.
     -623   -1    0    0    0    0  0.00000000000E+00  0.00000000000E+00  0.12525980253E-10  0.17130000000E+03  0.17130000000E+03 0. -1.
       11    1    1    2    0    0 -0.42884351368E-02 -0.82055538709E-02  0.80858604077E-01  0.81388554874E-01  0.51109989000E-03 0.  1.
     -623    1    1    2    0    0  0.56050722075E-02  0.10070316254E-01  0.54934553484E-03  0.17130000039E+03  0.17130000000E+03 0. -1.
      622    1    1    2    0    0 -0.13166370707E-02 -0.18647623829E-02  0.39185920177E+01  0.39186110565E+01  0.12000000000E-01 0.  1.
</event>
<event>
 5   0  0.3564000E+09  0.9118800E+02  0.7818608E-02  0.1180000E+00
       11   -1    0    0    0    0  0.00000000000E+00  0.00000000000E+00  0.39999999673E+01  0.40000000000E+01  0.51109989000E-03 0. -1.
     -623   -1    0    0    0    0  0.00000000000E+00  0.00000000000E+00  0.12525980253E-10  0.17130000000E+03  0.17130000000E+03 0. -1.
       11    1    1    2    0    0  0.90301492117E-03  0.28003687918E-02  0.41682287750E+00  0.41683357582E+00  0.51109989000E-03 0. -1.
     -623    1    1    2    0    0  0.17898784065E-03  0.21890606124E-03  0.32195368678E-04  0.17130000000E+03  0.17130000000E+03 0. -1.
      622    1    1    2    0    0 -0.10820027619E-02 -0.30192748531E-02  0.35831448952E+01  0.35831664247E+01  0.12000000000E-01 0. -1.
</event>
<event>
 5   0  0.3564000E+09  0.9118800E+02  0.7818608E-02  0.1180000E+00
       11   -1    0    0    0    0  0.00000000000E+00  0.00000000000E+00  0.39999999673E+01  0.40000000000E+01  0.51109989000E-03 0.  1.
     -623   -1    0    0    0    0  0.00000000000E+00  0.00000000000E+00  0.12525980253E-10  0.17130000000E+03  0.17130000000E+03 0. -1.
       11    1    1    2    0    0 -0.53417687856E-03  0.42675941691E-02  0.76083257844E+00  0.76084490624E+00  0.51109989000E-03 0.  1.
     -623    1    1    2    0    0  0.11310492077E-02  0.10123372361E-02  0.38888237254E-04  0.17130000001E+03  0.17130000000E+03 0. -1.
      622    1    1    2    0    0 -0.59687232936E-03 -0.52799314053E-02  0.32391285014E+01  0.32391550878E+01  0.12000000000E-01 0.  1.
</event>
<event>
 5   0  0.3564000E+09  0.9118800E+02  0.7818608E-02  0.1180000E+00
       11   -1    0    0    0    0  0.00000000000E+00  0.00000000000E+00  0.39999999673E+01  0.40000000000E+01  0.51109989000E-03 0. -1.
     -623   -1    0    0    0    0  0.00000000000E+00  0.00000000000E+00  0.12525980253E-10  0.17130000000E+03  0.17130000000E+03 0. -1.
       11    1    1    2    0    0 -0.26912927789E-02  0.11226482103E-03  0.15403261152E-01  0.15645361491E-01  0.51109989000E-03 0.  1.
     -623    1    1    2    0    0  0.33884958784E-02 -0.23574542108E-03  0.26023520807E-03  0.17130000003E+03  0.17130000000E+03 0. -1.
      622    1    1    2    0    0 -0.69720309946E-03  0.12348060005E-03  0.39843364710E+01  0.39843546046E+01  0.12000000000E-01 0. -1.
</event>
<event>
 5   0  0.3564000E+09  0.9118800E+02  0.7818608E-02  0.1180000E+00
       11   -1    0    0    0    0  0.00000000000E+00  0.00000000000E+00  0.39999999673E+01  0.40000000000E+01  0.51109989000E-03 0.  1.
     -623   -1    0    0    0    0  0.00000000000E+00  0.00000000000E+00  0.12525980253E-10  0.17130000000E+03  0.17130000000E+03 0.  1.
       11    1    1    2    0    0  0.78196973580E-03  0.29194405663E-02  0.73779720176E+00  0.73780356923E+00  0.51109989000E-03 0.  1.
     -623    1    1    2    0    0  0.16841288423E-02 -0.27182382739E-02  0.29374115092E-04  0.17130000003E+03  0.17130000000E+03 0.  1.
      622    1    1    2    0    0 -0.24660985841E-02 -0.20120228278E-03  0.32621734056E+01  0.32621964151E+01  0.12000000000E-01 0.  1.
</event>
<event>
 5   0  0.3564000E+09  0.9118800E+02  0.7818608E-02  0.1180000E+00
       11   -1    0    0    0    0  0.00000000000E+00  0.00000000000E+00  0.39999999673E+01  0.40000000000E+01  0.51109989000E-03 0.  1.
     -623   -1    0    0    0    0  0.00000000000E+00  0.00000000000E+00  0.12525980253E-10  0.17130000000E+03  0.17130000000E+03 0. -1.
       11    1    1    2    0    0  0.94669538141E-04 -0.39604574654E-02  0.10199355237E+01  0.10199433455E+01  0.51109989000E-03 0.  1.
     -623    1    1    2    0    0  0.11612467031E-02  0.74821840175E-03  0.33951307540E-04  0.17130000001E+03  0.17130000000E+03 0. -1.
      622    1    1    2    0    0 -0.12559162413E-02  0.32122390637E-02  0.29800304923E+01  0.29800566490E+01  0.12000000000E-01 0.  1.
</event>
<event>
 5   0  0.3564000E+09  0.9118800E+02  0.7818608E-02  0.1180000E+00
       11   -1    0    0    0    0  0.00000000000E+00  0.00000000000E+00  0.39999999673E+01  0.40000000000E+01  0.51109989000E-03 0.  1.
     -623   -1    0    0    0    0  0.00000000000E+00  0.00000000000E+00  0.12525980253E-10  0.17130000000E+03  0.17130000000E+03 0. -1.
       11    1    1    2    0    0 -0.26194341992E-02 -0.11777677860E-01  0.76373724888E+00  0.76383271838E+00  0.51109989000E-03 0.  1.
     -623    1    1    2    0    0  0.22805859695E-03  0.74112076226E-03  0.13739047020E-03  0.17130000000E+03  0.17130000000E+03 0. -1.
      622    1    1    2    0    0  0.23913756022E-02  0.11036557098E-01  0.32361253293E+01  0.32361672811E+01  0.12000000000E-01 0.  1.
</event>
<event>
 5   0  0.3564000E+09  0.9118800E+02  0.7818608E-02  0.1180000E+00
       11   -1    0    0    0    0  0.00000000000E+00  0.00000000000E+00  0.39999999673E+01  0.40000000000E+01  0.51109989000E-03 0. -1.
     -623   -1    0    0    0    0  0.00000000000E+00  0.00000000000E+00  0.12525980253E-10  0.17130000000E+03  0.17130000000E+03 0. -1.
       11    1    1    2    0    0 -0.10027932300E-01  0.46475227393E-04  0.94034409740E+00  0.94039770540E+00  0.51109989000E-03 0. -1.
     -623    1    1    2    0    0 -0.31671166737E-02 -0.57310795269E-02  0.11096735751E-03  0.17130000013E+03  0.17130000000E+03 0. -1.
      622    1    1    2    0    0  0.13195048976E-01  0.56846043021E-02  0.30595449044E+01  0.30596021712E+01  0.12000000000E-01 0. -1.
</event>
<event>
 5   0  0.3564000E+09  0.9118800E+02  0.7818608E-02  0.1180000E+00
       11   -1    0    0    0    0  0.00000000000E+00  0.00000000000E+00  0.39999999673E+01  0.40000000000E+01  0.51109989000E-03 0.  1.
     -623   -1    0    0    0    0  0.00000000000E+00  0.00000000000E+00  0.12525980253E-10  0.17130000000E+03  0.17130000000E+03 0. -1.
       11    1    1    2    0    0 -0.39593964206E-02 -0.24475265742E-02  0.30617372219E+00  0.30620953052E+00  0.51109989000E-03 0.  1.
     -623    1    1    2    0    0  0.45878202943E-04  0.11185268064E-03  0.58079600432E-04  0.17130000000E+03  0.17130000000E+03 0. -1.
      622    1    1    2    0    0  0.39135182177E-02  0.23356738936E-02  0.36937681656E+01  0.36937904694E+01  0.12000000000E-01 0.  1.
</event>
<event>
 5   0  0.3564000E+09  0.9118800E+02  0.7818608E-02  0.1180000E+00
       11   -1    0    0    0    0  0.00000000000E+00  0.00000000000E+00  0.39999999673E+01  0.40000000000E+01  0.51109989000E-03 0. -1.
     -623   -1    0    0    0    0  0.00000000000E+00  0.00000000000E+00  0.12525980253E-10  0.17130000000E+03  0.17130000000E+03 0.  1.
       11    1    1    2    0    0 -0.11090544035E-02  0.56727850579E-04  0.10380725691E-02  0.16037567613E-02  0.51109989000E-03 0. -1.
     -623    1    1    2    0    0  0.11385879758E-02 -0.66230298968E-03  0.58371083943E-03  0.17130000001E+03  0.17130000000E+03 0.  1.
      622    1    1    2    0    0 -0.29533572264E-04  0.60557513910E-03  0.39983781840E+01  0.39983962372E+01  0.12000000000E-01 0. -1.
</event>
<event>
 5   0  0.3564000E+09  0.9118800E+02  0.7818608E-02  0.1180000E+00
       11   -1    0    0    0    0  0.00000000000E+00  0.00000000000E+00  0.39999999673E+01  0.40000000000E+01  0.51109989000E-03 0. -1.
     -623   -1    0    0    0    0  0.00000000000E+00  0.00000000000E+00  0.12525980253E-10  0.17130000000E+03  0.17130000000E+03 0. -1.
       11    1    1    2    0    0 -0.38265247416E-03  0.11264267692E-02  0.33802808800E-01  0.33827597671E-01  0.51109989000E-03 0. -1.
     -623    1    1    2    0    0  0.37086327949E-04  0.32893856163E-05  0.43085753001E-04  0.17130000000E+03  0.17130000000E+03 0. -1.
      622    1    1    2    0    0  0.34556614621E-03 -0.11297161548E-02  0.39661540728E+01  0.39661724023E+01  0.12000000000E-01 0. -1.
</event>
<event>
 5   0  0.3564000E+09  0.9118800E+02  0.7818608E-02  0.1180000E+00
       11   -1    0    0    0    0  0.00000000000E+00  0.00000000000E+00  0.39999999673E+01  0.40000000000E+01  0.51109989000E-03 0. -1.
     -623   -1    0    0    0    0  0.00000000000E+00  0.00000000000E+00  0.12525980253E-10  0.17130000000E+03  0.17130000000E+03 0.  1.
       11    1    1    2    0    0 -0.38373329703E-03  0.11892459169E-02  0.58817312420E-01  0.58832805628E-01  0.51109989000E-03 0. -1.
     -623    1    1    2    0    0  0.81833811937E-03  0.73817598583E-03  0.34228124639E-04  0.17130000000E+03  0.17130000000E+03 0.  1.
      622    1    1    2    0    0 -0.43460482234E-03 -0.19274219028E-02  0.39411484268E+01  0.39411671908E+01  0.12000000000E-01 0. -1.
</event>
<event>
 5   0  0.3564000E+09  0.9118800E+02  0.7818608E-02  0.1180000E+00
       11   -1    0    0    0    0  0.00000000000E+00  0.00000000000E+00  0.39999999673E+01  0.40000000000E+01  0.51109989000E-03 0.  1.
     -623   -1    0    0    0    0  0.00000000000E+00  0.00000000000E+00  0.12525980253E-10  0.17130000000E+03  0.17130000000E+03 0. -1.
       11    1    1    2    0    0 -0.10195270766E-01  0.35630188233E-02  0.25390984467E+00  0.25413993998E+00  0.51109989000E-03 0.  1.
     -623    1    1    2    0    0 -0.16640851713E-03  0.23005971537E-02  0.26822022685E-03  0.17130000002E+03  0.17130000000E+03 0. -1.
      622    1    1    2    0    0  0.10361679284E-01 -0.58636159770E-02  0.37458219025E+01  0.37458600443E+01  0.12000000000E-01 0.  1.
</event>
<event>
 5   0  0.3564000E+09  0.9118800E+02  0.7818608E-02  0.1180000E+00
       11   -1    0    0    0    0  0.00000000000E+00  0.00000000000E+00  0.39999999673E+01  0.40000000000E+01  0.51109989000E-03 0.  1.
     -623   -1    0    0    0    0  0.00000000000E+00  0.00000000000E+00  0.12525980253E-10  0.17130000000E+03  0.17130000000E+03 0. -1.
       11    1    1    2    0    0  0.29479770009E-02  0.22944557181E-02  0.56467740079E+00  0.56468998865E+00  0.51109989000E-03 0.  1.
     -623    1    1    2    0    0 -0.70417471497E-02 -0.52560310888E-02  0.37455296765E-04  0.17130000023E+03  0.17130000000E+03 0. -1.
      622    1    1    2    0    0  0.40937701767E-02  0.29615753916E-02  0.34352851271E+01  0.34353098018E+01  0.12000000000E-01 0.  1.
</event>
<event>
 5   0  0.3564000E+09  0.9118800E+02  0.7818608E-02  0.1180000E+00
       11   -1    0    0    0    0  0.00000000000E+00  0.00000000000E+00  0.39999999673E+01  0.40000000000E+01  0.51109989000E-03 0. -1.
     -623   -1    0    0    0    0  0.00000000000E+00  0.00000000000E+00  0.12525980253E-10  0.17130000000E+03  0.17130000000E+03 0. -1.
       11    1    1    2    0    0  0.17093484687E-02 -0.28336740132E-02  0.88848072137E+00  0.88848703145E+00  0.51109989000E-03 0. -1.
     -623    1    1    2    0    0  0.12681398157E-02  0.13400398535E-02  0.31210459928E-04  0.17130000001E+03  0.17130000000E+03 0. -1.
      622    1    1    2    0    0 -0.29774882830E-02  0.14936341612E-02  0.31114880310E+01  0.31115129541E+01  0.12000000000E-01 0. -1.
</event>
<event>
 5   0  0.3564000E+09  0.9118800E+02  0.7818608E-02  0.1180000E+00
       11   -1    0    0    0    0  0.00000000000E+00  0.00000000000E+00  0.39999999673E+01  0.40000000000E+01  0.51109989000E-03 0. -1.
     -623   -1    0    0    0    0  0.00000000000E+00  0.00000000000E+00  0.12525980253E-10  0.17130000000E+03  0.17130000000E+03 0.  1.
       11    1    1    2    0    0 -0.99414522665E-03 -0.10678772884E-02  0.16726548945E-01  0.16797837639E-01  0.51109989000E-03 0. -1.
     -623    1    1    2    0    0 -0.91839635421E-03  0.34688904400E-03  0.89859250085E-04  0.17130000000E+03  0.17130000000E+03 0.  1.
      622    1    1    2    0    0  0.19125415810E-02  0.72098824437E-03  0.39831835599E+01  0.39832021603E+01  0.12000000000E-01 0. -1.
</event>
<event>
 5   0  0.3564000E+09  0.9118800E+02  0.7818608E-02  0.1180000E+00
       11   -1    0    0    0    0  0.00000000000E+00  0.00000000000E+00  0.39999999673E+01  0.40000000000E+01  0.51109989000E-03 0.  1.
     -623   -1    0    0    0    0  0.00000000000E+00  0.00000000000E+00  0.12525980253E-10  0.17130000000E+03  0.17130000000E+03 0.  1.
       11    1    1    2    0    0 -0.46599526280E-02  0.42631358676E-03  0.58536583163E-01  0.58725545491E-01  0.51109989000E-03 0.  1.
     -623    1    1    2    0    0 -0.62670352923E-02 -0.12755212742E-02  0.22255632133E-03  0.17130000012E+03  0.17130000000E+03 0.  1.
      622    1    1    2    0    0  0.10926987919E-01  0.84920768723E-03  0.39412408271E+01  0.39412743342E+01  0.12000000000E-01 0.  1.
</event>
<event>
 5   0  0.3564000E+09  0.9118800E+02  0.7818608E-02  0.1180000E+00
       11   -1    0    0    0    0  0.00000000000E+00  0.00000000000E+00  0.39999999673E+01  0.40000000000E+01  0.51109989000E-03 0.  1.
     -623   -1    0    0    0    0  0.00000000000E+00  0.00000000000E+00  0.12525980253E-10  0.17130000000E+03  0.17130000000E+03 0. -1.
       11    1    1    2    0    0 -0.35136524440E-02 -0.24066768190E-02  0.89019480530E-01  0.89122763555E-01  0.51109989000E-03 0.  1.
     -623    1    1    2    0    0 -0.11175592145E-02  0.21964458182E-02  0.12442616838E-03  0.17130000002E+03  0.17130000000E+03 0. -1.
      622    1    1    2    0    0  0.46312116593E-02  0.21023099910E-03  0.39108560636E+01  0.39108772216E+01  0.12000000000E-01 0.  1.
</event>
<event>
 5   0  0.3564000E+09  0.9118800E+02  0.7818608E-02  0.1180000E+00
       11   -1    0    0    0    0  0.00000000000E+00  0.00000000000E+00  0.39999999673E+01  0.40000000000E+01  0.51109989000E-03 0.  1.
     -623   -1    0    0    0    0  0.00000000000E+00  0.00000000000E+00  0.12525980253E-10  0.17130000000E+03  0.17130000000E+03 0.  1.
       11    1    1    2    0    0  0.13482801341E-03 -0.14359584275E-02  0.19757575769E-01  0.19816739857E-01  0.51109989000E-03 0.  1.
     -623    1    1    2    0    0  0.57161025485E-03  0.13074028485E-02  0.77291837641E-04  0.17130000001E+03  0.17130000000E+03 0.  1.
      622    1    1    2    0    0 -0.70643826835E-03  0.12855557882E-03  0.39801651004E+01  0.39801832548E+01  0.12000000000E-01 0.  1.
</event>
<event>
 5   0  0.3564000E+09  0.9118800E+02  0.7818608E-02  0.1180000E+00
       11   -1    0    0    0    0  0.00000000000E+00  0.00000000000E+00  0.39999999673E+01  0.40000000000E+01  0.51109989000E-03 0.  1.
     -623   -1    0    0    0    0  0.00000000000E+00  0.00000000000E+00  0.12525980253E-10  0.17130000000E+03  0.17130000000E+03 0.  1.
       11    1    1    2    0    0  0.38702088236E-02  0.52568770758E-02  0.87187349628E-01  0.87432879571E-01  0.51109989000E-03 0.  1.
     -623    1    1    2    0    0 -0.82829856353E-03  0.66575218488E-03  0.26956830085E-03  0.17130000000E+03  0.17130000000E+03 0.  1.
      622    1    1    2    0    0 -0.30419102601E-02 -0.59226292607E-02  0.39125430494E+01  0.39125671169E+01  0.12000000000E-01 0.  1.
</event>
<event>
 5   0  0.3564000E+09  0.9118800E+02  0.7818608E-02  0.1180000E+00
       11   -1    0    0    0    0  0.00000000000E+00  0.00000000000E+00  0.39999999673E+01  0.40000000000E+01  0.51109989000E-03 0. -1.
     -623   -1    0    0    0    0  0.00000000000E+00  0.00000000000E+00  0.12525980253E-10  0.17130000000E+03  0.17130000000E+03 0. -1.
       11    1    1    2    0    0 -0.21105277571E-02 -0.20711076866E-02  0.13731013344E+00  0.13734292039E+00  0.51109989000E-03 0. -1.
     -623    1    1    2    0    0  0.30616447525E-03 -0.12294533907E-03  0.52439268190E-04  0.17130000000E+03  0.17130000000E+03 0. -1.
      622    1    1    2    0    0  0.18043632818E-02  0.21940530257E-02  0.38626373947E+01  0.38626570793E+01  0.12000000000E-01 0. -1.
</event>
<event>
 5   0  0.3564000E+09  0.9118800E+02  0.7818608E-02  0.1180000E+00
       11   -1    0    0    0    0  0.00000000000E+00  0.00000000000E+00  0.39999999673E+01  0.40000000000E+01  0.51109989000E-03 0. -1.
     -623   -1    0    0    0    0  0.00000000000E+00  0.00000000000E+00  0.12525980253E-10  0.17130000000E+03  0.17130000000E+03 0. -1.
       11    1    1    2    0    0 -0.46090684653E-02 -0.50319479052E-02  0.62254988238E+00  0.62258748886E+00  0.51109989000E-03 0. -1.
     -623    1    1    2    0    0  0.32242651731E-02 -0.23263956385E-02  0.67237900824E-04  0.17130000005E+03  0.17130000000E+03 0. -1.
      622    1    1    2    0    0  0.13848032922E-02  0.73583435436E-02  0.33773828471E+01  0.33774124650E+01  0.12000000000E-01 0. -1.
</event>
<event>
 5   0  0.3564000E+09  0.9118800E+02  0.7818608E-02  0.1180000E+00
       11   -1    0    0    0    0  0.00000000000E+00  0.00000000000E+00  0.39999999673E+01  0.40000000000E+01  0.51109989000E-03 0. -1.
     -623   -1    0    0    0    0  0.00000000000E+00  0.00000000000E+00  0.12525980253E-10  0.17130000000E+03  0.17130000000E+03 0. -1.
       11    1    1    2    0    0 -0.71017642295E-02  0.10418157412E-02  0.83956942091E+00  0.83960025857E+00  0.51109989000E-03 0. -1.
     -623    1    1    2    0    0 -0.26394160153E-03 -0.12459821969E-03  0.62303808445E-04  0.17130000000E+03  0.17130000000E+03 0. -1.
      622    1    1    2    0    0  0.73657058308E-02 -0.91721752161E-03  0.31603682380E+01  0.31603997366E+01  0.12000000000E-01 0. -1.
</event>
<event>
 5   0  0.3564000E+09  0.9118800E+02  0.7818608E-02  0.1180000E+00
       11   -1    0    0    0    0  0.00000000000E+00  0.00000000000E+00  0.39999999673E+01  0.40000000000E+01  0.51109989000E-03 0.  1.
     -623   -1    0    0    0    0  0.00000000000E+00  0.00000000000E+00  0.12525980253E-10  0.17130000000E+03  0.17130000000E+03 0. -1.
       11    1    1    2    0    0  0.40129861809E-02 -0.21365951169E-02  0.59673277090E+00  0.59675030808E+00  0.51109989000E-03 0.  1.
     -623    1    1    2    0    0  0.22086856737E-03  0.26040803775E-02  0.41346504687E-04  0.17130000002E+03  0.17130000000E+03 0. -1.
      622    1    1    2    0    0 -0.42338547490E-02 -0.46748526892E-03  0.34032258628E+01  0.34032496848E+01  0.12000000000E-01 0.  1.
</event>
<event>
 5   0  0.3564000E+09  0.9118800E+02  0.7818608E-02  0.1180000E+00
       11   -1    0    0    0    0  0.00000000000E+00  0.00000000000E+00  0.39999999673E+01  0.40000000000E+01  0.51109989000E-03 0. -1.
     -623   -1    0    0    0    0  0.00000000000E+00  0.00000000000E+00  0.12525980253E-10  0.17130000000E+03  0.17130000000E+03 0. -1.
       11    1    1    2    0    0  0.14742818428E-03  0.77476677555E-03  0.16761532010E-01  0.16787857977E-01  0.51109989000E-03 0. -1.
     -623    1    1    2    0    0  0.23511675312E-03  0.91721388470E-04  0.44482038640E-04  0.17130000000E+03  0.17130000000E+03 0. -1.
      622    1    1    2    0    0 -0.38254493740E-03 -0.86648816402E-03  0.39831939533E+01  0.39832121418E+01  0.12000000000E-01 0. -1.
</event>
<event>
 5   0  0.3564000E+09  0.9118800E+02  0.7818608E-02  0.1180000E+00
       11   -1    0    0    0    0  0.00000000000E+00  0.00000000000E+00  0.39999999673E+01  0.40000000000E+01  0.51109989000E-03 0.  1.
     -623   -1    0    0    0    0  0.00000000000E+00  0.00000000000E+00  0.12525980253E-10  0.17130000000E+03  0.17130000000E+03 0. -1.
       11    1    1    2    0    0 -0.77713522322E-03  0.24052834709E-02  0.92584822082E-01  0.92620731107E-01  0.51109989000E-03 0.  1.
     -623    1    1    2    0    0  0.93646463933E-04  0.68282074828E-03  0.55584586475E-04  0.17130000000E+03  0.17130000000E+03 0. -1.
      622    1    1    2    0    0  0.68348875906E-03 -0.30881042209E-02  0.39073595707E+01  0.39073792775E+01  0.12000000000E-01 0.  1.
</event>
<event>
 5   0  0.3564000E+09  0.9118800E+02  0.7818608E-02  0.1180000E+00
       11   -1    0    0    0    0  0.00000000000E+00  0.00000000000E+00  0.39999999673E+01  0.40000000000E+01  0.51109989000E-03 0. -1.
     -623   -1    0    0    0    0  0.00000000000E+00  0.00000000000E+00  0.12525980253E-10  0.17130000000E+03  0.17130000000E+03 0.  1.
       11    1    1    2    0    0  0.24386062612E-02  0.26547135304E-02  0.25484364328E+00  0.25486964913E+00  0.51109989000E-03 0. -1.
     -623    1    1    2    0    0 -0.49355447786E-03  0.13172956039E-02  0.47815423617E-04  0.17130000001E+03  0.17130000000E+03 0.  1.
      622    1    1    2    0    0 -0.19450517832E-02 -0.39720091348E-02  0.37451085101E+01  0.37451303465E+01  0.12000000000E-01 0. -1.
</event>
<event>
 5   0  0.3564000E+09  0.9118800E+02  0.7818608E-02  0.1180000E+00
       11   -1    0    0    0    0  0.00000000000E+00  0.00000000000E+00  0.39999999673E+01  0.40000000000E+01  0.51109989000E-03 0.  1.
     -623   -1    0    0    0    0  0.00000000000E+00  0.00000000000E+00  0.12525980253E-10  0.17130000000E+03  0.17130000000E+03 0.  1.
       11    1    1    2    0    0  0.10155666034E-01  0.39270853388E-02  0.50412752464E-01  0.51577770240E-01  0.51109989000E-03 0.  1.
     -623    1    1    2    0    0 -0.10880143204E-01 -0.35196147769E-02  0.11836935775E-02  0.17130000039E+03  0.17130000000E+03 0.  1.
      622    1    1    2    0    0  0.72447716978E-03 -0.40747056189E-03  0.39484035213E+01  0.39484218440E+01  0.12000000000E-01 0.  1.
</event>
<event>
 5   0  0.3564000E+09  0.9118800E+02  0.7818608E-02  0.1180000E+00
       11   -1    0    0    0    0  0.00000000000E+00  0.00000000000E+00  0.39999999673E+01  0.40000000000E+01  0.51109989000E-03 0. -1.
     -623   -1    0    0    0    0  0.00000000000E+00  0.00000000000E+00  0.12525980253E-10  0.17130000000E+03  0.17130000000E+03 0.  1.
       11    1    1    2    0    0 -0.20222516730E-03  0.11345444992E-02  0.26557277169E+00  0.26557576390E+00  0.51109989000E-03 0. -1.
     -623    1    1    2    0    0 -0.52833217182E-04 -0.27827783537E-04  0.22412416560E-04  0.17130000000E+03  0.17130000000E+03 0.  1.
      622    1    1    2    0    0  0.25505838431E-03 -0.11067167157E-02  0.37344047705E+01  0.37344242233E+01  0.12000000000E-01 0. -1.
</event>
<event>
 5   0  0.3564000E+09  0.9118800E+02  0.7818608E-02  0.1180000E+00
       11   -1    0    0    0    0  0.00000000000E+00  0.00000000000E+00  0.39999999673E+01  0.40000000000E+01  0.51109989000E-03 0.  1.
     -623   -1    0    0    0    0  0.00000000000E+00  0.00000000000E+00  0.12525980253E-10  0.17130000000E+03  0.17130000000E+03 0. -1.
       11    1    1    2    0    0  0.33148924519E-02  0.31533456681E-01  0.54402329777E+00  0.54494674707E+00  0.51109989000E-03 0.  1.
     -623    1    1    2    0    0  0.16335921642E-02 -0.24843413804E-02  0.10699500698E-02  0.17130000003E+03  0.17130000000E+03 0. -1.
      622    1    1    2    0    0 -0.49484846160E-02 -0.29049115301E-01  0.34549067195E+01  0.34550532238E+01  0.12000000000E-01 0.  1.
</event>
<event>
 5   0  0.3564000E+09  0.9118800E+02  0.7818608E-02  0.1180000E+00
       11   -1    0    0    0    0  0.00000000000E+00  0.00000000000E+00  0.39999999673E+01  0.40000000000E+01  0.51109989000E-03 0.  1.
     -623   -1    0    0    0    0  0.00000000000E+00  0.00000000000E+00  0.12525980253E-10  0.17130000000E+03  0.17130000000E+03 0. -1.
       11    1    1    2    0    0  0.78744098254E-03  0.27630326351E-02  0.56230116995E+00  0.56230874203E+00  0.51109989000E-03 0.  1.
     -623    1    1    2    0    0 -0.78692440081E-04 -0.33570267547E-04  0.29640455434E-04  0.17130000000E+03  0.17130000000E+03 0. -1.
      622    1    1    2    0    0 -0.70874854245E-03 -0.27294623676E-02  0.34376691570E+01  0.34376912579E+01  0.12000000000E-01 0.  1.
</event>
<event>
 5   0  0.3564000E+09  0.9118800E+02  0.7818608E-02  0.1180000E+00
       11   -1    0    0    0    0  0.00000000000E+00  0.00000000000E+00  0.39999999673E+01  0.40000000000E+01  0.51109989000E-03 0. -1.
     -623   -1    0    0    0    0  0.00000000000E+00  0.00000000000E+00  0.12525980253E-10  0.17130000000E+03  0.17130000000E+03 0.  1.
       11    1    1    2    0    0 -0.14796612225E-02 -0.18821787230E-02  0.43991051218E-01  0.44059117154E-01  0.51109989000E-03 0. -1.
     -623    1    1    2    0    0 -0.15729680294E-03 -0.11393450264E-03  0.87076238775E-04  0.17130000000E+03  0.17130000000E+03 0.  1.
      622    1    1    2    0    0  0.16369580255E-02  0.19961132257E-02  0.39559218421E+01  0.39559408850E+01  0.12000000000E-01 0. -1.
</event>
<event>
 5   0  0.3564000E+09  0.9118800E+02  0.7818608E-02  0.1180000E+00
       11   -1    0    0    0    0  0.00000000000E+00  0.00000000000E+00  0.39999999673E+01  0.40000000000E+01  0.51109989000E-03 0. -1.
     -623   -1    0    0    0    0  0.00000000000E+00  0.00000000000E+00  0.12525980253E-10  0.17130000000E+03  0.17130000000E+03 0.  1.
       11    1    1    2    0    0 -0.25747542876E-02  0.12825559974E-02  0.39155553929E+00  0.39156643865E+00  0.51109989000E-03 0. -1.
     -623    1    1    2    0    0  0.81939456915E-03 -0.22857346791E-03  0.31403039754E-04  0.17130000000E+03  0.17130000000E+03 0.  1.
      622    1    1    2    0    0  0.17553597169E-02 -0.10539825290E-02  0.36084130330E+01  0.36084335672E+01  0.12000000000E-01 0. -1.
</event>
<event>
 5   0  0.3564000E+09  0.9118800E+02  0.7818608E-02  0.1180000E+00
       11   -1    0    0    0    0  0.00000000000E+00  0.00000000000E+00  0.39999999673E+01  0.40000000000E+01  0.51109989000E-03 0. -1.
     -623   -1    0    0    0    0  0.00000000000E+00  0.00000000000E+00  0.12525980253E-10  0.17130000000E+03  0.17130000000E+03 0.  1.
       11    1    1    2    0    0 -0.34422801452E-03 -0.14292507527E-02  0.11443114022E+01  0.11443124607E+01  0.51109989000E-03 0. -1.
     -623    1    1    2    0    0 -0.58031648317E-03  0.41842673924E-03  0.26568860513E-04  0.17130000000E+03  0.17130000000E+03 0.  1.
      622    1    1    2    0    0  0.92454449965E-03  0.10108240121E-02  0.28556620098E+01  0.28556875513E+01  0.12000000000E-01 0. -1.
</event>
<event>
 5   0  0.3564000E+09  0.9118800E+02  0.7818608E-02  0.1180000E+00
       11   -1    0    0    0    0  0.00000000000E+00  0.00000000000E+00  0.39999999673E+01  0.40000000000E+01  0.51109989000E-03 0.  1.
     -623   -1    0    0    0    0  0.00000000000E+00  0.00000000000E+00  0.12525980253E-10  0.17130000000E+03  0.17130000000E+03 0.  1.
       11    1    1    2    0    0 -0.36897505787E-03 -0.15557732776E-03  0.19768503251E-01  0.19779162988E-01  0.51109989000E-03 0.  1.
     -623    1    1    2    0    0  0.94074063681E-04 -0.10319760870E-02  0.28906379747E-04  0.17130000000E+03  0.17130000000E+03 0.  1.
      622    1    1    2    0    0  0.27490099419E-03  0.11875534147E-02  0.39802025577E+01  0.39802208339E+01  0.12000000000E-01 0.  1.
</event>
<event>
 5   0  0.3564000E+09  0.9118800E+02  0.7818608E-02  0.1180000E+00
       11   -1    0    0    0    0  0.00000000000E+00  0.00000000000E+00  0.39999999673E+01  0.40000000000E+01  0.51109989000E-03 0. -1.
     -623   -1    0    0    0    0  0.00000000000E+00  0.00000000000E+00  0.12525980253E-10  0.17130000000E+03  0.17130000000E+03 0.  1.
       11    1    1    2    0    0  0.97529125613E-02 -0.47102302152E-03  0.32703712355E+00  0.32718325533E+00  0.51109989000E-03 0. -1.
     -623    1    1    2    0    0 -0.28920720965E-02 -0.16254523835E-02  0.17274131605E-03  0.17130000003E+03  0.17130000000E+03 0.  1.
      622    1    1    2    0    0 -0.68608404648E-02  0.20964754050E-02  0.36727901025E+01  0.36728167125E+01  0.12000000000E-01 0.  0.
</event>
<event>
 5   0  0.3564000E+09  0.9118800E+02  0.7818608E-02  0.1180000E+00
       11   -1    0    0    0    0  0.00000000000E+00  0.00000000000E+00  0.39999999673E+01  0.40000000000E+01  0.51109989000E-03 0. -1.
     -623   -1    0    0    0    0  0.00000000000E+00  0.00000000000E+00  0.12525980253E-10  0.17130000000E+03  0.17130000000E+03 0. -1.
       11    1    1    2    0    0  0.13150015372E-02  0.43927065705E-03  0.33721829521E-01  0.33754187845E-01  0.51109989000E-03 0. -1.
     -623    1    1    2    0    0 -0.30465330646E-04  0.23653414693E-03  0.50744671122E-04  0.17130000000E+03  0.17130000000E+03 0. -1.
      622    1    1    2    0    0 -0.12845362065E-02 -0.67580480455E-03  0.39662274029E+01  0.39662458217E+01  0.12000000000E-01 0. -1.
</event>
<event>
 5   0  0.3564000E+09  0.9118800E+02  0.7818608E-02  0.1180000E+00
       11   -1    0    0    0    0  0.00000000000E+00  0.00000000000E+00  0.39999999673E+01  0.40000000000E+01  0.51109989000E-03 0. -1.
     -623   -1    0    0    0    0  0.00000000000E+00  0.00000000000E+00  0.12525980253E-10  0.17130000000E+03  0.17130000000E+03 0.  1.
       11    1    1    2    0    0 -0.18796744926E-02 -0.26849867989E-02  0.92402340566E-01  0.92461862915E-01  0.51109989000E-03 0. -1.
     -623    1    1    2    0    0  0.33377913766E-03 -0.43950237311E-03  0.79471562708E-04  0.17130000000E+03  0.17130000000E+03 0.  1.
      622    1    1    2    0    0  0.15458953549E-02  0.31244891720E-02  0.39075181552E+01  0.39075381362E+01  0.12000000000E-01 0. -1.
</event>
<event>
 5   0  0.3564000E+09  0.9118800E+02  0.7818608E-02  0.1180000E+00
       11   -1    0    0    0    0  0.00000000000E+00  0.00000000000E+00  0.39999999673E+01  0.40000000000E+01  0.51109989000E-03 0. -1.
     -623   -1    0    0    0    0  0.00000000000E+00  0.00000000000E+00  0.12525980253E-10  0.17130000000E+03  0.17130000000E+03 0. -1.
       11    1    1    2    0    0 -0.48033009274E-02  0.66817722152E-02  0.38223250132E+00  0.38232141460E+00  0.51109989000E-03 0. -1.
     -623    1    1    2    0    0  0.46851362942E-02 -0.98752867332E-02  0.11054320500E-03  0.17130000035E+03  0.17130000000E+03 0. -1.
      622    1    1    2    0    0  0.11816463316E-03  0.31935145180E-02  0.36176569228E+01  0.36176782366E+01  0.12000000000E-01 0. -1.
</event>
<event>
 5   0  0.3564000E+09  0.9118800E+02  0.7818608E-02  0.1180000E+00
       11   -1    0    0    0    0  0.00000000000E+00  0.00000000000E+00  0.39999999673E+01  0.40000000000E+01  0.51109989000E-03 0.  1.
     -623   -1    0    0    0    0  0.00000000000E+00  0.00000000000E+00  0.12525980253E-10  0.17130000000E+03  0.17130000000E+03 0. -1.
       11    1    1    2    0    0  0.25799476590E-02 -0.10276522776E-02  0.49068400396E+00  0.49069212870E+00  0.51109989000E-03 0.  1.
     -623    1    1    2    0    0 -0.80775082529E-04 -0.90162865489E-04  0.29677001743E-04  0.17130000000E+03  0.17130000000E+03 0. -1.
      622    1    1    2    0    0 -0.24991725765E-02  0.11178151431E-02  0.35092862864E+01  0.35093078713E+01  0.12000000000E-01 0.  1.
</event>
<event>
 5   0  0.3564000E+09  0.9118800E+02  0.7818608E-02  0.1180000E+00
       11   -1    0    0    0    0  0.00000000000E+00  0.00000000000E+00  0.39999999673E+01  0.40000000000E+01  0.51109989000E-03 0. -1.
     -623   -1    0    0    0    0  0.00000000000E+00  0.00000000000E+00  0.12525980253E-10  0.17130000000E+03  0.17130000000E+03 0. -1.
       11    1    1    2    0    0  0.25059276307E-02 -0.24300774621E-02  0.24542494034E+00  0.24545029541E+00  0.51109989000E-03 0. -1.
     -623    1    1    2    0    0  0.73848211953E-03  0.58995922066E-03  0.46354546227E-04  0.17130000000E+03  0.17130000000E+03 0. -1.
      622    1    1    2    0    0 -0.32444097517E-02  0.18401182403E-02  0.37545286805E+01  0.37545497100E+01  0.12000000000E-01 0. -1.
</event>
<event>
 5   0  0.3564000E+09  0.9118800E+02  0.7818608E-02  0.1180000E+00
       11   -1    0    0    0    0  0.00000000000E+00  0.00000000000E+00  0.39999999673E+01  0.40000000000E+01  0.51109989000E-03 0.  1.
     -623   -1    0    0    0    0  0.00000000000E+00  0.00000000000E+00  0.12525980253E-10  0.17130000000E+03  0.17130000000E+03 0. -1.
       11    1    1    2    0    0 -0.15932569753E-02 -0.65239921670E-02  0.35938531199E-01  0.36564192717E-01  0.51109989000E-03 0.  1.
     -623    1    1    2    0    0  0.50843234447E-02  0.61548309280E-02  0.64553691551E-03  0.17130000019E+03  0.17130000000E+03 0. -1.
      622    1    1    2    0    0 -0.34910664694E-02  0.36916123903E-03  0.39634158992E+01  0.39634356200E+01  0.12000000000E-01 0.  1.
</event>
<event>
 5   0  0.3564000E+09  0.9118800E+02  0.7818608E-02  0.1180000E+00
       11   -1    0    0    0    0  0.00000000000E+00  0.00000000000E+00  0.39999999673E+01  0.40000000000E+01  0.51109989000E-03 0.  1.
     -623   -1    0    0    0    0  0.00000000000E+00  0.00000000000E+00  0.12525980253E-10  0.17130000000E+03  0.17130000000E+03 0. -1.
       11    1    1    2    0    0 -0.41317099359E-02 -0.11370767270E-02  0.35858016956E+00  0.35860613937E+00  0.51109989000E-03 0.  1.
     -623    1    1    2    0    0  0.34770328247E-02  0.14189176492E-02  0.45820803213E-04  0.17130000004E+03  0.17130000000E+03 0. -1.
      622    1    1    2    0    0  0.65467711122E-03 -0.28184092218E-03  0.36413739770E+01  0.36413938195E+01  0.12000000000E-01 0.  0.
</event>
<event>
 5   0  0.3564000E+09  0.9118800E+02  0.7818608E-02  0.1180000E+00
       11   -1    0    0    0    0  0.00000000000E+00  0.00000000000E+00  0.39999999673E+01  0.40000000000E+01  0.51109989000E-03 0. -1.
     -623   -1    0    0    0    0  0.00000000000E+00  0.00000000000E+00  0.12525980253E-10  0.17130000000E+03  0.17130000000E+03 0.  1.
       11    1    1    2    0    0  0.30501459612E-03 -0.55618781250E-02  0.56826335033E+00  0.56829087981E+00  0.51109989000E-03 0. -1.
     -623    1    1    2    0    0  0.52150267364E-04  0.75669372194E-04  0.52881698851E-04  0.17130000000E+03  0.17130000000E+03 0.  1.
      622    1    1    2    0    0 -0.35716486348E-03  0.54862087528E-02  0.34316837353E+01  0.34317091202E+01  0.12000000000E-01 0. -1.
</event>
<event>
 5   0  0.3564000E+09  0.9118800E+02  0.7818608E-02  0.1180000E+00
       11   -1    0    0    0    0  0.00000000000E+00  0.00000000000E+00  0.39999999673E+01  0.40000000000E+01  0.51109989000E-03 0.  1.
     -623   -1    0    0    0    0  0.00000000000E+00  0.00000000000E+00  0.12525980253E-10  0.17130000000E+03  0.17130000000E+03 0.  1.
       11    1    1    2    0    0 -0.10611091790E-03 -0.52716877768E-03  0.39101265917E-01  0.39108303285E-01  0.51109989000E-03 0.  1.
     -623    1    1    2    0    0  0.21579408659E-03  0.84094719641E-04  0.25208953753E-04  0.17130000000E+03  0.17130000000E+03 0.  1.
      622    1    1    2    0    0 -0.10968316851E-03  0.44307405811E-03  0.39608734891E+01  0.39608916932E+01  0.12000000000E-01 0.  1.
</event>
<event>
 5   0  0.3564000E+09  0.9118800E+02  0.7818608E-02  0.1180000E+00
       11   -1    0    0    0    0  0.00000000000E+00  0.00000000000E+00  0.39999999673E+01  0.40000000000E+01  0.51109989000E-03 0. -1.
     -623   -1    0    0    0    0  0.00000000000E+00  0.00000000000E+00  0.12525980253E-10  0.17130000000E+03  0.17130000000E+03 0.  1.
       11    1    1    2    0    0 -0.48298897952E-03  0.45867311449E-02  0.11614008748E+01  0.11614101448E+01  0.51109989000E-03 0. -1.
     -623    1    1    2    0    0 -0.37744133274E-03  0.65116722107E-03  0.39566963083E-04  0.17130000000E+03  0.17130000000E+03 0.  1.
      622    1    1    2    0    0  0.86043031327E-03 -0.52378983677E-02  0.28385595363E+01  0.28385898642E+01  0.12000000000E-01 0.  1.
</event>
<event>
 5   0  0.3564000E+09  0.9118800E+02  0.7818608E-02  0.1180000E+00
       11   -1    0    0    0    0  0.00000000000E+00  0.00000000000E+00  0.39999999673E+01  0.40000000000E+01  0.51109989000E-03 0.  1.
     -623   -1    0    0    0    0  0.00000000000E+00  0.00000000000E+00  0.12525980253E-10  0.17130000000E+03  0.17130000000E+03 0.  1.
       11    1    1    2    0    0  0.19408985459E-01  0.25857725752E-01  0.50926646442E+00  0.51029199846E+00  0.51109989000E-03 0.  1.
     -623    1    1    2    0    0 -0.68455813570E-02 -0.26931249164E-02  0.11457953544E-02  0.17130000016E+03  0.17130000000E+03 0.  1.
      622    1    1    2    0    0 -0.12563404102E-01 -0.23164600835E-01  0.34895877076E+01  0.34897078397E+01  0.12000000000E-01 0.  1.
</event>
<event>
 5   0  0.3564000E+09  0.9118800E+02  0.7818608E-02  0.1180000E+00
       11   -1    0    0    0    0  0.00000000000E+00  0.00000000000E+00  0.39999999673E+01  0.40000000000E+01  0.51109989000E-03 0.  1.
     -623   -1    0    0    0    0  0.00000000000E+00  0.00000000000E+00  0.12525980253E-10  0.17130000000E+03  0.17130000000E+03 0.  1.
       11    1    1    2    0    0  0.16593507427E-02  0.54469074854E-02  0.13536630204E+00  0.13548697058E+00  0.51109989000E-03 0.  1.
     -623    1    1    2    0    0  0.18318677235E-03 -0.30436265728E-03  0.14312832141E-03  0.17130000000E+03  0.17130000000E+03 0.  1.
      622    1    1    2    0    0 -0.18425375151E-02 -0.51425448281E-02  0.38644905370E+01  0.38645130290E+01  0.12000000000E-01 0.  1.
</event>
<event>
 5   0  0.3564000E+09  0.9118800E+02  0.7818608E-02  0.1180000E+00
       11   -1    0    0    0    0  0.00000000000E+00  0.00000000000E+00  0.39999999673E+01  0.40000000000E+01  0.51109989000E-03 0. -1.
     -623   -1    0    0    0    0  0.00000000000E+00  0.00000000000E+00  0.12525980253E-10  0.17130000000E+03  0.17130000000E+03 0. -1.
       11    1    1    2    0    0  0.33404976591E-02  0.35924335342E-02  0.17583370543E+00  0.17590286436E+00  0.51109989000E-03 0. -1.
     -623    1    1    2    0    0 -0.20913661094E-02  0.87331740839E-03  0.90780891912E-04  0.17130000002E+03  0.17130000000E+03 0. -1.
      622    1    1    2    0    0 -0.12491315497E-02 -0.44657509426E-02  0.38240754810E+01  0.38240971206E+01  0.12000000000E-01 0. -1.
</event>
<event>
 5   0  0.3564000E+09  0.9118800E+02  0.7818608E-02  0.1180000E+00
       11   -1    0    0    0    0  0.00000000000E+00  0.00000000000E+00  0.39999999673E+01  0.40000000000E+01  0.51109989000E-03 0.  1.
     -623   -1    0    0    0    0  0.00000000000E+00  0.00000000000E+00  0.12525980253E-10  0.17130000000E+03  0.17130000000E+03 0.  1.
       11    1    1    2    0    0 -0.13737906088E-02 -0.91078364439E-03  0.33011496794E-01  0.33056572284E-01  0.51109989000E-03 0.  1.
     -623    1    1    2    0    0  0.16711430089E-02 -0.70291246313E-03  0.63541851253E-04  0.17130000001E+03  0.17130000000E+03 0.  1.
      622    1    1    2    0    0 -0.29735240059E-03  0.16136961077E-02  0.39669249299E+01  0.39669434193E+01  0.12000000000E-01 0.  1.
</event>
<event>
 5   0  0.3564000E+09  0.9118800E+02  0.7818608E-02  0.1180000E+00
       11   -1    0    0    0    0  0.00000000000E+00  0.00000000000E+00  0.39999999673E+01  0.40000000000E+01  0.51109989000E-03 0.  1.
     -623   -1    0    0    0    0  0.00000000000E+00  0.00000000000E+00  0.12525980253E-10  0.17130000000E+03  0.17130000000E+03 0.  1.
       11    1    1    2    0    0 -0.58923657557E-03  0.20408202232E-02  0.11720813774E+01  0.11720834137E+01  0.51109989000E-03 0.  1.
     -623    1    1    2    0    0 -0.10616375922E-02  0.16245520144E-01  0.87843972526E-04  0.17130000077E+03  0.17130000000E+03 0.  1.
      622    1    1    2    0    0  0.16508741677E-02 -0.18286340367E-01  0.28278307460E+01  0.28279158126E+01  0.12000000000E-01 0.  0.
</event>
<event>
 5   0  0.3564000E+09  0.9118800E+02  0.7818608E-02  0.1180000E+00
       11   -1    0    0    0    0  0.00000000000E+00  0.00000000000E+00  0.39999999673E+01  0.40000000000E+01  0.51109989000E-03 0.  1.
     -623   -1    0    0    0    0  0.00000000000E+00  0.00000000000E+00  0.12525980253E-10  0.17130000000E+03  0.17130000000E+03 0. -1.
       11    1    1    2    0    0  0.57069794894E-03  0.63100411247E-03  0.12020777130E-01  0.12061681748E-01  0.51109989000E-03 0.  1.
     -623    1    1    2    0    0 -0.89965379425E-03  0.62678304823E-03  0.59141900269E-04  0.17130000000E+03  0.17130000000E+03 0. -1.
      622    1    1    2    0    0  0.32895584531E-03 -0.12577871607E-02  0.39879200483E+01  0.39879383147E+01  0.12000000000E-01 0.  1.
</event>
<event>
 5   0  0.3564000E+09  0.9118800E+02  0.7818608E-02  0.1180000E+00
       11   -1    0    0    0    0  0.00000000000E+00  0.00000000000E+00  0.39999999673E+01  0.40000000000E+01  0.51109989000E-03 0. -1.
     -623   -1    0    0    0    0  0.00000000000E+00  0.00000000000E+00  0.12525980253E-10  0.17130000000E+03  0.17130000000E+03 0.  1.
       11    1    1    2    0    0  0.28360427498E-02  0.14229242420E-01  0.70249629472E+00  0.70264629779E+00  0.51109989000E-03 0. -1.
     -623    1    1    2    0    0 -0.17114462467E-03 -0.10765852262E-03  0.20312293418E-03  0.17130000000E+03  0.17130000000E+03 0.  1.
      622    1    1    2    0    0 -0.26648981250E-02 -0.14121583898E-01  0.32973005512E+01  0.32973537035E+01  0.12000000000E-01 0. -1.
</event>
<event>
 5   0  0.3564000E+09  0.9118800E+02  0.7818608E-02  0.1180000E+00
       11   -1    0    0    0    0  0.00000000000E+00  0.00000000000E+00  0.39999999673E+01  0.40000000000E+01  0.51109989000E-03 0. -1.
     -623   -1    0    0    0    0  0.00000000000E+00  0.00000000000E+00  0.12525980253E-10  0.17130000000E+03  0.17130000000E+03 0. -1.
       11    1    1    2    0    0  0.37260211518E-03 -0.28381476339E-02  0.33813583294E+00  0.33814833529E+00  0.51109989000E-03 0. -1.
     -623    1    1    2    0    0  0.73320232455E-04 -0.41389749359E-04  0.33291297795E-04  0.17130000000E+03  0.17130000000E+03 0. -1.
      622    1    1    2    0    0 -0.44592234764E-03  0.28795373833E-02  0.36618308431E+01  0.36618516647E+01  0.12000000000E-01 0. -1.
</event>
<event>
 5   0  0.3564000E+09  0.9118800E+02  0.7818608E-02  0.1180000E+00
       11   -1    0    0    0    0  0.00000000000E+00  0.00000000000E+00  0.39999999673E+01  0.40000000000E+01  0.51109989000E-03 0. -1.
     -623   -1    0    0    0    0  0.00000000000E+00  0.00000000000E+00  0.12525980253E-10  0.17130000000E+03  0.17130000000E+03 0.  1.
       11    1    1    2    0    0  0.10467138381E-02 -0.23953013712E-03  0.72278311046E-01  0.72288093452E-01  0.51109989000E-03 0. -1.
     -623    1    1    2    0    0 -0.12366335222E-03  0.87264072260E-03  0.28242850850E-04  0.17130000000E+03  0.17130000000E+03 0.  1.
      622    1    1    2    0    0 -0.92305048591E-03 -0.63311058548E-03  0.39276934135E+01  0.39277119043E+01  0.12000000000E-01 0. -1.
</event>
<event>
 5   0  0.3564000E+09  0.9118800E+02  0.7818608E-02  0.1180000E+00
       11   -1    0    0    0    0  0.00000000000E+00  0.00000000000E+00  0.39999999673E+01  0.40000000000E+01  0.51109989000E-03 0. -1.
     -623   -1    0    0    0    0  0.00000000000E+00  0.00000000000E+00  0.12525980253E-10  0.17130000000E+03  0.17130000000E+03 0. -1.
       11    1    1    2    0    0 -0.36613259436E-02 -0.54794428788E-03  0.60839636924E+00  0.60840784748E+00  0.51109989000E-03 0. -1.
     -623    1    1    2    0    0  0.36243356018E-02  0.35424787586E-02  0.34071801473E-04  0.17130000007E+03  0.17130000000E+03 0. -1.
      622    1    1    2    0    0  0.36990336418E-04 -0.29945344759E-02  0.33915695322E+01  0.33915920834E+01  0.12000000000E-01 0. -1.
</event>
<event>
 5   0  0.3564000E+09  0.9118800E+02  0.7818608E-02  0.1180000E+00
       11   -1    0    0    0    0  0.00000000000E+00  0.00000000000E+00  0.39999999673E+01  0.40000000000E+01  0.51109989000E-03 0. -1.
     -623   -1    0    0    0    0  0.00000000000E+00  0.00000000000E+00  0.12525980253E-10  0.17130000000E+03  0.17130000000E+03 0. -1.
       11    1    1    2    0    0 -0.21916723121E-02  0.43792749477E-02  0.80379808069E+00  0.80381316064E+00  0.51109989000E-03 0.  1.
     -623    1    1    2    0    0 -0.99491989298E-04  0.34951124132E-03  0.41894000860E-04  0.17130000000E+03  0.17130000000E+03 0. -1.
      622    1    1    2    0    0  0.22911643013E-02 -0.47287861886E-02  0.31961599888E+01  0.31961868351E+01  0.12000000000E-01 0. -1.
</event>
<event>
 5   0  0.3564000E+09  0.9118800E+02  0.7818608E-02  0.1180000E+00
       11   -1    0    0    0    0  0.00000000000E+00  0.00000000000E+00  0.39999999673E+01  0.40000000000E+01  0.51109989000E-03 0. -1.
     -623   -1    0    0    0    0  0.00000000000E+00  0.00000000000E+00  0.12525980253E-10  0.17130000000E+03  0.17130000000E+03 0. -1.
       11    1    1    2    0    0 -0.43367177320E-02  0.10631524065E-01  0.58493567421E+00  0.58504857970E+00  0.51109989000E-03 0. -1.
     -623    1    1    2    0    0  0.14504509608E-03 -0.16294379132E-02  0.14840230675E-03  0.17130000001E+03  0.17130000000E+03 0. -1.
      622    1    1    2    0    0  0.41916726359E-02 -0.90020861519E-02  0.34149158916E+01  0.34149514132E+01  0.12000000000E-01 0. -1.
</event>
<event>
 5   0  0.3564000E+09  0.9118800E+02  0.7818608E-02  0.1180000E+00
       11   -1    0    0    0    0  0.00000000000E+00  0.00000000000E+00  0.39999999673E+01  0.40000000000E+01  0.51109989000E-03 0.  1.
     -623   -1    0    0    0    0  0.00000000000E+00  0.00000000000E+00  0.12525980253E-10  0.17130000000E+03  0.17130000000E+03 0.  1.
       11    1    1    2    0    0  0.53399402595E-03 -0.15676925904E-02  0.29450033827E+00  0.29450543844E+00  0.51109989000E-03 0.  1.
     -623    1    1    2    0    0 -0.60964960183E-05 -0.62001732048E-04  0.24894178239E-04  0.17130000000E+03  0.17130000000E+03 0.  1.
      622    1    1    2    0    0 -0.52789752994E-03  0.16296943224E-02  0.37054747349E+01  0.37054945615E+01  0.12000000000E-01 0.  1.
</event>
<event>
 5   0  0.3564000E+09  0.9118800E+02  0.7818608E-02  0.1180000E+00
       11   -1    0    0    0    0  0.00000000000E+00  0.00000000000E+00  0.39999999673E+01  0.40000000000E+01  0.51109989000E-03 0. -1.
     -623   -1    0    0    0    0  0.00000000000E+00  0.00000000000E+00  0.12525980253E-10  0.17130000000E+03  0.17130000000E+03 0. -1.
       11    1    1    2    0    0  0.17751100953E-04 -0.22357057786E-04  0.13223676886E+00  0.13223775964E+00  0.51109989000E-03 0. -1.
     -623    1    1    2    0    0  0.90961796644E-03  0.90718452609E-03  0.19790810563E-04  0.17130000000E+03  0.17130000000E+03 0. -1.
      622    1    1    2    0    0 -0.92736906740E-03 -0.88482746831E-03  0.38677434077E+01  0.38677622355E+01  0.12000000000E-01 0. -1.
</event>
<event>
 5   0  0.3564000E+09  0.9118800E+02  0.7818608E-02  0.1180000E+00
       11   -1    0    0    0    0  0.00000000000E+00  0.00000000000E+00  0.39999999673E+01  0.40000000000E+01  0.51109989000E-03 0. -1.
     -623   -1    0    0    0    0  0.00000000000E+00  0.00000000000E+00  0.12525980253E-10  0.17130000000E+03  0.17130000000E+03 0.  1.
       11    1    1    2    0    0 -0.29561212363E-02 -0.22491400628E-03  0.15899400119E+00  0.15902246029E+00  0.51109989000E-03 0. -1.
     -623    1    1    2    0    0  0.17067597029E-02 -0.20524542573E-02  0.48070871983E-04  0.17130000002E+03  0.17130000000E+03 0.  1.
      622    1    1    2    0    0  0.12493615334E-02  0.22773682636E-02  0.38409578953E+01  0.38409775189E+01  0.12000000000E-01 0. -1.
</event>
<event>
 5   0  0.3564000E+09  0.9118800E+02  0.7818608E-02  0.1180000E+00
       11   -1    0    0    0    0  0.00000000000E+00  0.00000000000E+00  0.39999999673E+01  0.40000000000E+01  0.51109989000E-03 0. -1.
     -623   -1    0    0    0    0  0.00000000000E+00  0.00000000000E+00  0.12525980253E-10  0.17130000000E+03  0.17130000000E+03 0. -1.
       11    1    1    2    0    0  0.76176382031E-03  0.32048354707E-05  0.13459318563E+00  0.13459631175E+00  0.51109989000E-03 0. -1.
     -623    1    1    2    0    0  0.35581602911E-04 -0.66618743180E-04  0.21803069711E-04  0.17130000000E+03  0.17130000000E+03 0. -1.
      622    1    1    2    0    0 -0.79734542339E-03  0.63413908016E-04  0.38653849971E+01  0.38654037066E+01  0.12000000000E-01 0. -1.
</event>
<event>
 5   0  0.3564000E+09  0.9118800E+02  0.7818608E-02  0.1180000E+00
       11   -1    0    0    0    0  0.00000000000E+00  0.00000000000E+00  0.39999999673E+01  0.40000000000E+01  0.51109989000E-03 0.  1.
     -623   -1    0    0    0    0  0.00000000000E+00  0.00000000000E+00  0.12525980253E-10  0.17130000000E+03  0.17130000000E+03 0. -1.
       11    1    1    2    0    0 -0.21879520390E-03  0.27724975617E-03  0.26080205019E-02  0.26809947416E-02  0.51109989000E-03 0.  1.
     -623    1    1    2    0    0  0.43729187434E-03 -0.48753117819E-04  0.90966804293E-04  0.17130000000E+03  0.17130000000E+03 0. -1.
      622    1    1    2    0    0 -0.21849667066E-03 -0.22849663832E-03  0.39973009821E+01  0.39973190067E+01  0.12000000000E-01 0.  1.
</event>
<event>
 5   0  0.3564000E+09  0.9118800E+02  0.7818608E-02  0.1180000E+00
       11   -1    0    0    0    0  0.00000000000E+00  0.00000000000E+00  0.39999999673E+01  0.40000000000E+01  0.51109989000E-03 0.  1.
     -623   -1    0    0    0    0  0.00000000000E+00  0.00000000000E+00  0.12525980253E-10  0.17130000000E+03  0.17130000000E+03 0. -1.
       11    1    1    2    0    0 -0.18583858076E-02 -0.55869550220E-02  0.73808011158E+00  0.73810377319E+00  0.51109989000E-03 0.  1.
     -623    1    1    2    0    0 -0.29913304609E-02  0.55591395089E-02  0.49423795597E-04  0.17130000012E+03  0.17130000000E+03 0. -1.
      622    1    1    2    0    0  0.48497162685E-02  0.27815513103E-04  0.32618704320E+01  0.32618961105E+01  0.12000000000E-01 0.  1.
</event>
<event>
 5   0  0.3564000E+09  0.9118800E+02  0.7818608E-02  0.1180000E+00
       11   -1    0    0    0    0  0.00000000000E+00  0.00000000000E+00  0.39999999673E+01  0.40000000000E+01  0.51109989000E-03 0.  1.
     -623   -1    0    0    0    0  0.00000000000E+00  0.00000000000E+00  0.12525980253E-10  0.17130000000E+03  0.17130000000E+03 0.  1.
       11    1    1    2    0    0  0.12069851836E-01  0.52035858110E-02  0.54021975299E+00  0.54037986766E+00  0.51109989000E-03 0.  1.
     -623    1    1    2    0    0 -0.61282391414E-02 -0.39102052730E-02  0.18639189239E-03  0.17130000015E+03  0.17130000000E+03 0.  1.
      622    1    1    2    0    0 -0.59416126910E-02 -0.12933805359E-02  0.34595938246E+01  0.34596199801E+01  0.12000000000E-01 0.  0.
</event>
<event>
 5   0  0.3564000E+09  0.9118800E+02  0.7818608E-02  0.1180000E+00
       11   -1    0    0    0    0  0.00000000000E+00  0.00000000000E+00  0.39999999673E+01  0.40000000000E+01  0.51109989000E-03 0.  1.
     -623   -1    0    0    0    0  0.00000000000E+00  0.00000000000E+00  0.12525980253E-10  0.17130000000E+03  0.17130000000E+03 0. -1.
       11    1    1    2    0    0 -0.19526335891E-01  0.89557691436E-02  0.25009894869E+00  0.25102037557E+00  0.51109989000E-03 0.  1.
     -623    1    1    2    0    0  0.85559869917E-03  0.17887134130E-03  0.99822614860E-03  0.17130000001E+03  0.17130000000E+03 0. -1.
      622    1    1    2    0    0  0.18670737192E-01 -0.91346404849E-02  0.37489027925E+01  0.37489796193E+01  0.12000000000E-01 0.  1.
</event>
<event>
 5   0  0.3564000E+09  0.9118800E+02  0.7818608E-02  0.1180000E+00
       11   -1    0    0    0    0  0.00000000000E+00  0.00000000000E+00  0.39999999673E+01  0.40000000000E+01  0.51109989000E-03 0. -1.
     -623   -1    0    0    0    0  0.00000000000E+00  0.00000000000E+00  0.12525980253E-10  0.17130000000E+03  0.17130000000E+03 0.  1.
       11    1    1    2    0    0  0.22353940615E-03 -0.13477692988E-03  0.17965687765E-01  0.17974851728E-01  0.51109989000E-03 0. -1.
     -623    1    1    2    0    0 -0.28511913149E-04 -0.54154953722E-04  0.27221887231E-04  0.17130000000E+03  0.17130000000E+03 0.  1.
      622    1    1    2    0    0 -0.19502749296E-03  0.18893188368E-03  0.39820070633E+01  0.39820251539E+01  0.12000000000E-01 0. -1.
</event>
<event>
 5   0  0.3564000E+09  0.9118800E+02  0.7818608E-02  0.1180000E+00
       11   -1    0    0    0    0  0.00000000000E+00  0.00000000000E+00  0.39999999673E+01  0.40000000000E+01  0.51109989000E-03 0.  1.
     -623   -1    0    0    0    0  0.00000000000E+00  0.00000000000E+00  0.12525980253E-10  0.17130000000E+03  0.17130000000E+03 0.  1.
       11    1    1    2    0    0  0.47694051177E-04 -0.33780376618E-02  0.23790552853E-01  0.24034663329E-01  0.51109989000E-03 0.  1.
     -623    1    1    2    0    0  0.37074820373E-02  0.39209439126E-02  0.26408228368E-03  0.17130000009E+03  0.17130000000E+03 0.  1.
      622    1    1    2    0    0 -0.37551760896E-02 -0.54290625199E-03  0.39759453334E+01  0.39759652526E+01  0.12000000000E-01 0.  1.
</event>
<event>
 5   0  0.3564000E+09  0.9118800E+02  0.7818608E-02  0.1180000E+00
       11   -1    0    0    0    0  0.00000000000E+00  0.00000000000E+00  0.39999999673E+01  0.40000000000E+01  0.51109989000E-03 0.  1.
     -623   -1    0    0    0    0  0.00000000000E+00  0.00000000000E+00  0.12525980253E-10  0.17130000000E+03  0.17130000000E+03 0.  1.
       11    1    1    2    0    0  0.25764455701E-03 -0.61686636704E-03  0.29431532512E-01  0.29443560090E-01  0.51109989000E-03 0.  1.
     -623    1    1    2    0    0  0.77614585198E-04  0.11396558165E-03  0.30174518268E-04  0.17130000000E+03  0.17130000000E+03 0.  1.
      622    1    1    2    0    0 -0.33525914221E-03  0.50290078539E-03  0.39705382603E+01  0.39705564399E+01  0.12000000000E-01 0.  1.
</event>
<event>
 5   0  0.3564000E+09  0.9118800E+02  0.7818608E-02  0.1180000E+00
       11   -1    0    0    0    0  0.00000000000E+00  0.00000000000E+00  0.39999999673E+01  0.40000000000E+01  0.51109989000E-03 0.  1.
     -623   -1    0    0    0    0  0.00000000000E+00  0.00000000000E+00  0.12525980253E-10  0.17130000000E+03  0.17130000000E+03 0. -1.
       11    1    1    2    0    0 -0.12130625821E-02  0.45887747679E-03  0.61889513571E+00  0.61889670569E+00  0.51109989000E-03 0.  1.
     -623    1    1    2    0    0  0.49207543610E-03  0.62207020669E-04  0.22949980212E-04  0.17130000000E+03  0.17130000000E+03 0. -1.
      622    1    1    2    0    0  0.72098714502E-03 -0.52108449758E-03  0.33810818893E+01  0.33811033012E+01  0.12000000000E-01 0.  1.
</event>
<event>
 5   0  0.3564000E+09  0.9118800E+02  0.7818608E-02  0.1180000E+00
       11   -1    0    0    0    0  0.00000000000E+00  0.00000000000E+00  0.39999999673E+01  0.40000000000E+01  0.51109989000E-03 0. -1.
     -623   -1    0    0    0    0  0.00000000000E+00  0.00000000000E+00  0.12525980253E-10  0.17130000000E+03  0.17130000000E+03 0.  1.
       11    1    1    2    0    0 -0.75756046084E-04 -0.37415963484E-03  0.73578126095E-02  0.73854156217E-02  0.51109989000E-03 0. -1.
     -623    1    1    2    0    0  0.23478626528E-03  0.23384872838E-03  0.45609667775E-04  0.17130000000E+03  0.17130000000E+03 0.  1.
      622    1    1    2    0    0 -0.15903021957E-03  0.14031090608E-03  0.39925965515E+01  0.39926145905E+01  0.12000000000E-01 0. -1.
</event>
<event>
 5   0  0.3564000E+09  0.9118800E+02  0.7818608E-02  0.1180000E+00
       11   -1    0    0    0    0  0.00000000000E+00  0.00000000000E+00  0.39999999673E+01  0.40000000000E+01  0.51109989000E-03 0.  1.
     -623   -1    0    0    0    0  0.00000000000E+00  0.00000000000E+00  0.12525980253E-10  0.17130000000E+03  0.17130000000E+03 0.  1.
       11    1    1    2    0    0 -0.13452011789E-03  0.24544297260E-02  0.21388061643E+00  0.21389535205E+00  0.51109989000E-03 0.  1.
     -623    1    1    2    0    0 -0.92194058619E-03 -0.43672464348E-03  0.34408012040E-04  0.17130000000E+03  0.17130000000E+03 0.  1.
      622    1    1    2    0    0  0.10564607041E-02 -0.20177050825E-02  0.37860849429E+01  0.37861046449E+01  0.12000000000E-01 0.  1.
</event>
<event>
 5   0  0.3564000E+09  0.9118800E+02  0.7818608E-02  0.1180000E+00
       11   -1    0    0    0    0  0.00000000000E+00  0.00000000000E+00  0.39999999673E+01  0.40000000000E+01  0.51109989000E-03 0.  1.
     -623   -1    0    0    0    0  0.00000000000E+00  0.00000000000E+00  0.12525980253E-10  0.17130000000E+03  0.17130000000E+03 0. -1.
       11    1    1    2    0    0  0.16946315198E-02 -0.15237542248E-02  0.11709411289E+01  0.11709434581E+01  0.51109989000E-03 0.  1.
     -623    1    1    2    0    0 -0.17080711502E-02 -0.23302467049E-02  0.30396463043E-04  0.17130000002E+03  0.17130000000E+03 0. -1.
      622    1    1    2    0    0  0.13439630447E-04  0.38540009297E-02  0.28290284420E+01  0.28290565175E+01  0.12000000000E-01 0.  1.
</event>
<event>
 5   0  0.3564000E+09  0.9118800E+02  0.7818608E-02  0.1180000E+00
       11   -1    0    0    0    0  0.00000000000E+00  0.00000000000E+00  0.39999999673E+01  0.40000000000E+01  0.51109989000E-03 0. -1.
     -623   -1    0    0    0    0  0.00000000000E+00  0.00000000000E+00  0.12525980253E-10  0.17130000000E+03  0.17130000000E+03 0. -1.
       11    1    1    2    0    0  0.44291448201E-03  0.12295037709E-02  0.11634238076E+00  0.11635084286E+00  0.51109989000E-03 0. -1.
     -623    1    1    2    0    0 -0.81816363081E-04 -0.10647349619E-03  0.27147992521E-04  0.17130000000E+03  0.17130000000E+03 0. -1.
      622    1    1    2    0    0 -0.36109811892E-03 -0.11230302747E-02  0.38836304386E+01  0.38836491571E+01  0.12000000000E-01 0.  0.
</event>
<event>
 5   0  0.3564000E+09  0.9118800E+02  0.7818608E-02  0.1180000E+00
       11   -1    0    0    0    0  0.00000000000E+00  0.00000000000E+00  0.39999999673E+01  0.40000000000E+01  0.51109989000E-03 0. -1.
     -623   -1    0    0    0    0  0.00000000000E+00  0.00000000000E+00  0.12525980253E-10  0.17130000000E+03  0.17130000000E+03 0. -1.
       11    1    1    2    0    0 -0.51281517213E-03 -0.21563027375E-02  0.35513456026E+00  0.35514184453E+00  0.51109989000E-03 0. -1.
     -623    1    1    2    0    0  0.53307528183E-03  0.24055179388E-02  0.27031834838E-04  0.17130000002E+03  0.17130000000E+03 0. -1.
      622    1    1    2    0    0 -0.20260111527E-04 -0.24921520959E-03  0.36448383890E+01  0.36448581515E+01  0.12000000000E-01 0. -1.
</event>
<event>
 5   0  0.3564000E+09  0.9118800E+02  0.7818608E-02  0.1180000E+00
       11   -1    0    0    0    0  0.00000000000E+00  0.00000000000E+00  0.39999999673E+01  0.40000000000E+01  0.51109989000E-03 0.  1.
     -623   -1    0    0    0    0  0.00000000000E+00  0.00000000000E+00  0.12525980253E-10  0.17130000000E+03  0.17130000000E+03 0.  1.
       11    1    1    2    0    0 -0.41348261386E-02  0.11287790204E-02  0.89023089281E-01  0.89127675695E-01  0.51109989000E-03 0. -1.
     -623    1    1    2    0    0  0.25728103568E-02 -0.59524992082E-03  0.12333276335E-03  0.17130000002E+03  0.17130000000E+03 0.  1.
      622    1    1    2    0    0  0.15620157818E-02 -0.53352909958E-03  0.39108535453E+01  0.39108723039E+01  0.12000000000E-01 0.  1.
</event>
<event>
 5   0  0.3564000E+09  0.9118800E+02  0.7818608E-02  0.1180000E+00
       11   -1    0    0    0    0  0.00000000000E+00  0.00000000000E+00  0.39999999673E+01  0.40000000000E+01  0.51109989000E-03 0. -1.
     -623   -1    0    0    0    0  0.00000000000E+00  0.00000000000E+00  0.12525980253E-10  0.17130000000E+03  0.17130000000E+03 0.  1.
       11    1    1    2    0    0  0.75386687066E-02  0.24335399460E-02  0.10006474595E+01  0.10006789461E+01  0.51109989000E-03 0. -1.
     -623    1    1    2    0    0  0.18325607300E-03 -0.10909247392E-03  0.66300674616E-04  0.17130000000E+03  0.17130000000E+03 0.  1.
      622    1    1    2    0    0 -0.77219247799E-02 -0.23244474719E-02  0.29992862124E+01  0.29993210590E+01  0.12000000000E-01 0.  0.
</event>
<event>
 5   0  0.3564000E+09  0.9118800E+02  0.7818608E-02  0.1180000E+00
       11   -1    0    0    0    0  0.00000000000E+00  0.00000000000E+00  0.39999999673E+01  0.40000000000E+01  0.51109989000E-03 0. -1.
     -623   -1    0    0    0    0  0.00000000000E+00  0.00000000000E+00  0.12525980253E-10  0.17130000000E+03  0.17130000000E+03 0. -1.
       11    1    1    2    0    0  0.11086916267E-02  0.22680843583E-02  0.32486495310E+00  0.32487516430E+00  0.51109989000E-03 0. -1.
     -623    1    1    2    0    0 -0.37967829116E-03 -0.19869909074E-02  0.29864787149E-04  0.17130000001E+03  0.17130000000E+03 0. -1.
      622    1    1    2    0    0 -0.72901333645E-03 -0.28109345561E-03  0.36751051400E+01  0.36751248143E+01  0.12000000000E-01 0. -1.
</event>
<event>
 5   0  0.3564000E+09  0.9118800E+02  0.7818608E-02  0.1180000E+00
       11   -1    0    0    0    0  0.00000000000E+00  0.00000000000E+00  0.39999999673E+01  0.40000000000E+01  0.51109989000E-03 0.  1.
     -623   -1    0    0    0    0  0.00000000000E+00  0.00000000000E+00  0.12525980253E-10  0.17130000000E+03  0.17130000000E+03 0. -1.
       11    1    1    2    0    0 -0.19003159855E-03 -0.66425029792E-03  0.10032080395E-01  0.10068823199E-01  0.51109989000E-03 0.  1.
     -623    1    1    2    0    0  0.37648311517E-03  0.12473215708E-02  0.54807553022E-04  0.17130000000E+03  0.17130000000E+03 0. -1.
      622    1    1    2    0    0 -0.18645151679E-03 -0.58307127342E-03  0.39899130812E+01  0.39899311736E+01  0.12000000000E-01 0.  1.
</event>
<event>
 5   0  0.3564000E+09  0.9118800E+02  0.7818608E-02  0.1180000E+00
       11   -1    0    0    0    0  0.00000000000E+00  0.00000000000E+00  0.39999999673E+01  0.40000000000E+01  0.51109989000E-03 0.  1.
     -623   -1    0    0    0    0  0.00000000000E+00  0.00000000000E+00  0.12525980253E-10  0.17130000000E+03  0.17130000000E+03 0. -1.
       11    1    1    2    0    0  0.47584226302E-03  0.76654852368E-04  0.98029494729E-03  0.12060278218E-02  0.51109989000E-03 0.  1.
     -623    1    1    2    0    0 -0.68086708364E-03  0.46898044074E-03  0.24375035445E-03  0.17130000000E+03  0.17130000000E+03 0. -1.
      622    1    1    2    0    0  0.20502482031E-03 -0.54563529289E-03  0.39987759202E+01  0.39987939682E+01  0.12000000000E-01 0.  1.
</event>
<event>
 5   0  0.3564000E+09  0.9118800E+02  0.7818608E-02  0.1180000E+00
       11   -1    0    0    0    0  0.00000000000E+00  0.00000000000E+00  0.39999999673E+01  0.40000000000E+01  0.51109989000E-03 0.  1.
     -623   -1    0    0    0    0  0.00000000000E+00  0.00000000000E+00  0.12525980253E-10  0.17130000000E+03  0.17130000000E+03 0.  1.
       11    1    1    2    0    0 -0.87165879093E-03 -0.64612469540E-03  0.68783160510E-01  0.68793616395E-01  0.51109989000E-03 0.  1.
     -623    1    1    2    0    0 -0.46488109251E-04  0.19578669041E-03  0.28871409551E-04  0.17130000000E+03  0.17130000000E+03 0.  1.
      622    1    1    2    0    0  0.91814690018E-03  0.45033800500E-03  0.39311879354E+01  0.39312063835E+01  0.12000000000E-01 0.  1.
</event>
<event>
 5   0  0.3564000E+09  0.9118800E+02  0.7818608E-02  0.1180000E+00
       11   -1    0    0    0    0  0.00000000000E+00  0.00000000000E+00  0.39999999673E+01  0.40000000000E+01  0.51109989000E-03 0.  1.
     -623   -1    0    0    0    0  0.00000000000E+00  0.00000000000E+00  0.12525980253E-10  0.17130000000E+03  0.17130000000E+03 0. -1.
       11    1    1    2    0    0 -0.51935548219E-02 -0.42451362144E-02  0.21305066052E+00  0.21315684217E+00  0.51109989000E-03 0.  1.
     -623    1    1    2    0    0  0.34628082743E-02 -0.19047043332E-02  0.13059711552E-03  0.17130000005E+03  0.17130000000E+03 0. -1.
      622    1    1    2    0    0  0.17307465447E-02  0.61498405491E-02  0.37868187130E+01  0.37868431155E+01  0.12000000000E-01 0.  1.
</event>
<event>
 5   0  0.3564000E+09  0.9118800E+02  0.7818608E-02  0.1180000E+00
       11   -1    0    0    0    0  0.00000000000E+00  0.00000000000E+00  0.39999999673E+01  0.40000000000E+01  0.51109989000E-03 0.  1.
     -623   -1    0    0    0    0  0.00000000000E+00  0.00000000000E+00  0.12525980253E-10  0.17130000000E+03  0.17130000000E+03 0.  1.
       11    1    1    2    0    0  0.74498861394E-03 -0.36177621034E-02  0.18650441443E+00  0.18654168712E+00  0.51109989000E-03 0.  1.
     -623    1    1    2    0    0  0.49171942673E-04 -0.14072565569E-04  0.57932749271E-04  0.17130000000E+03  0.17130000000E+03 0.  1.
      622    1    1    2    0    0 -0.79416055661E-03  0.36318346690E-02  0.38134376202E+01  0.38134583129E+01  0.12000000000E-01 0.  1.
</event>
<event>
 5   0  0.3564000E+09  0.9118800E+02  0.7818608E-02  0.1180000E+00
       11   -1    0    0    0    0  0.00000000000E+00  0.00000000000E+00  0.39999999673E+01  0.40000000000E+01  0.51109989000E-03 0. -1.
     -623   -1    0    0    0    0  0.00000000000E+00  0.00000000000E+00  0.12525980253E-10  0.17130000000E+03  0.17130000000E+03 0. -1.
       11    1    1    2    0    0  0.84894310390E-03  0.52025541620E-03  0.19677649231E-01  0.19709451348E-01  0.51109989000E-03 0. -1.
     -623    1    1    2    0    0 -0.61752767745E-05  0.15067937160E-03  0.50004493993E-04  0.17130000000E+03  0.17130000000E+03 0. -1.
      622    1    1    2    0    0 -0.84276782713E-03 -0.67093478762E-03  0.39802723088E+01  0.39802905438E+01  0.12000000000E-01 0. -1.
</event>
<event>
 5   0  0.3564000E+09  0.9118800E+02  0.7818608E-02  0.1180000E+00
       11   -1    0    0    0    0  0.00000000000E+00  0.00000000000E+00  0.39999999673E+01  0.40000000000E+01  0.51109989000E-03 0.  1.
     -623   -1    0    0    0    0  0.00000000000E+00  0.00000000000E+00  0.12525980253E-10  0.17130000000E+03  0.17130000000E+03 0. -1.
       11    1    1    2    0    0 -0.73481126970E-05 -0.52372170894E-03  0.80229027088E-01  0.80232364704E-01  0.51109989000E-03 0.  1.
     -623    1    1    2    0    0 -0.78605021851E-03 -0.51460261660E-03  0.21893853068E-04  0.17130000000E+03  0.17130000000E+03 0. -1.
      622    1    1    2    0    0  0.79339833121E-03  0.10383243255E-02  0.39197490464E+01  0.39197676327E+01  0.12000000000E-01 0.  1.
</event>
<event>
 5   0  0.3564000E+09  0.9118800E+02  0.7818608E-02  0.1180000E+00
       11   -1    0    0    0    0  0.00000000000E+00  0.00000000000E+00  0.39999999673E+01  0.40000000000E+01  0.51109989000E-03 0.  1.
     -623   -1    0    0    0    0  0.00000000000E+00  0.00000000000E+00  0.12525980253E-10  0.17130000000E+03  0.17130000000E+03 0. -1.
       11    1    1    2    0    0 -0.41749712742E-02  0.90579205772E-02  0.10942161617E+01  0.10942617356E+01  0.51109989000E-03 0.  1.
     -623    1    1    2    0    0  0.75703200744E-02 -0.64111915990E-02  0.73796383067E-04  0.17130000029E+03  0.17130000000E+03 0. -1.
      622    1    1    2    0    0 -0.33953488003E-02 -0.26467289782E-02  0.29057100093E+01  0.29057379771E+01  0.12000000000E-01 0.  1.
</event>
<event>
 5   0  0.3564000E+09  0.9118800E+02  0.7818608E-02  0.1180000E+00
       11   -1    0    0    0    0  0.00000000000E+00  0.00000000000E+00  0.39999999673E+01  0.40000000000E+01  0.51109989000E-03 0.  1.
     -623   -1    0    0    0    0  0.00000000000E+00  0.00000000000E+00  0.12525980253E-10  0.17130000000E+03  0.17130000000E+03 0.  1.
       11    1    1    2    0    0 -0.19931338449E-02 -0.15521649970E-02  0.14700034333E+00  0.14702293686E+00  0.51109989000E-03 0.  1.
     -623    1    1    2    0    0  0.59014963484E-04 -0.79773286390E-04  0.42078865768E-04  0.17130000000E+03  0.17130000000E+03 0.  1.
      622    1    1    2    0    0  0.19341188812E-02  0.16319382836E-02  0.38529575570E+01  0.38529770749E+01  0.12000000000E-01 0.  1.
</event>
<event>
 5   0  0.3564000E+09  0.9118800E+02  0.7818608E-02  0.1180000E+00
       11   -1    0    0    0    0  0.00000000000E+00  0.00000000000E+00  0.39999999673E+01  0.40000000000E+01  0.51109989000E-03 0. -1.
     -623   -1    0    0    0    0  0.00000000000E+00  0.00000000000E+00  0.12525980253E-10  0.17130000000E+03  0.17130000000E+03 0. -1.
       11    1    1    2    0    0  0.22823478716E-03  0.22682068293E-02  0.93833644103E-01  0.93862723377E-01  0.51109989000E-03 0. -1.
     -623    1    1    2    0    0 -0.13245347950E-02 -0.87215221434E-03  0.47889877636E-04  0.17130000001E+03  0.17130000000E+03 0. -1.
      622    1    1    2    0    0  0.10963000079E-02 -0.13960546149E-02  0.39061184334E+01  0.39061372693E+01  0.12000000000E-01 0. -1.
</event>
<event>
 5   0  0.3564000E+09  0.9118800E+02  0.7818608E-02  0.1180000E+00
       11   -1    0    0    0    0  0.00000000000E+00  0.00000000000E+00  0.39999999673E+01  0.40000000000E+01  0.51109989000E-03 0.  1.
     -623   -1    0    0    0    0  0.00000000000E+00  0.00000000000E+00  0.12525980253E-10  0.17130000000E+03  0.17130000000E+03 0. -1.
       11    1    1    2    0    0 -0.40618119505E-02 -0.17862816494E-02  0.35383977667E+00  0.35386796676E+00  0.51109989000E-03 0.  1.
     -623    1    1    2    0    0  0.68495925952E-02 -0.12533084879E-02  0.50378724260E-04  0.17130000014E+03  0.17130000000E+03 0. -1.
      622    1    1    2    0    0 -0.27877806447E-02  0.30395901373E-02  0.36461098120E+01  0.36461318917E+01  0.12000000000E-01 0.  1.
</event>
<event>
 5   0  0.3564000E+09  0.9118800E+02  0.7818608E-02  0.1180000E+00
       11   -1    0    0    0    0  0.00000000000E+00  0.00000000000E+00  0.39999999673E+01  0.40000000000E+01  0.51109989000E-03 0. -1.
     -623   -1    0    0    0    0  0.00000000000E+00  0.00000000000E+00  0.12525980253E-10  0.17130000000E+03  0.17130000000E+03 0.  1.
       11    1    1    2    0    0 -0.12281562933E-02 -0.17050128126E-04  0.62487871763E-01  0.62502031952E-01  0.51109989000E-03 0. -1.
     -623    1    1    2    0    0  0.91949502968E-05 -0.14587273347E-03  0.32605434115E-04  0.17130000000E+03  0.17130000000E+03 0.  1.
      622    1    1    2    0    0  0.12189613430E-02  0.16292286160E-03  0.39374794902E+01  0.39374979680E+01  0.12000000000E-01 0. -1.
</event>
<event>
 5   0  0.3564000E+09  0.9118800E+02  0.7818608E-02  0.1180000E+00
       11   -1    0    0    0    0  0.00000000000E+00  0.00000000000E+00  0.39999999673E+01  0.40000000000E+01  0.51109989000E-03 0. -1.
     -623   -1    0    0    0    0  0.00000000000E+00  0.00000000000E+00  0.12525980253E-10  0.17130000000E+03  0.17130000000E+03 0.  1.
       11    1    1    2    0    0 -0.38750974192E-02  0.73095784277E-03  0.30556319499E+00  0.30558906727E+00  0.51109989000E-03 0. -1.
     -623    1    1    2    0    0  0.32413511926E-03  0.67380234320E-02  0.54718037772E-04  0.17130000013E+03  0.17130000000E+03 0.  1.
      622    1    1    2    0    0  0.35509623001E-02 -0.74689812710E-02  0.36943820521E+01  0.36944107976E+01  0.12000000000E-01 0. -1.
</event>
<event>
 5   0  0.3564000E+09  0.9118800E+02  0.7818608E-02  0.1180000E+00
       11   -1    0    0    0    0  0.00000000000E+00  0.00000000000E+00  0.39999999673E+01  0.40000000000E+01  0.51109989000E-03 0. -1.
     -623   -1    0    0    0    0  0.00000000000E+00  0.00000000000E+00  0.12525980253E-10  0.17130000000E+03  0.17130000000E+03 0.  1.
       11    1    1    2    0    0  0.21026247731E-02  0.12859098124E-02  0.98090738079E+00  0.98091061035E+00  0.51109989000E-03 0. -1.
     -623    1    1    2    0    0 -0.98073598843E-05 -0.44057712693E-04  0.28026057952E-04  0.17130000000E+03  0.17130000000E+03 0.  1.
      622    1    1    2    0    0 -0.20928174132E-02 -0.12418520995E-02  0.30190645737E+01  0.30190894028E+01  0.12000000000E-01 0. -1.
</event>
<event>
 5   0  0.3564000E+09  0.9118800E+02  0.7818608E-02  0.1180000E+00
       11   -1    0    0    0    0  0.00000000000E+00  0.00000000000E+00  0.39999999673E+01  0.40000000000E+01  0.51109989000E-03 0. -1.
     -623   -1    0    0    0    0  0.00000000000E+00  0.00000000000E+00  0.12525980253E-10  0.17130000000E+03  0.17130000000E+03 0. -1.
       11    1    1    2    0    0  0.14754919757E-02 -0.24953231789E-05  0.41013248292E-01  0.41042963360E-01  0.51109989000E-03 0. -1.
     -623    1    1    2    0    0 -0.11016653295E-03 -0.16627703618E-03  0.48108228853E-04  0.17130000000E+03  0.17130000000E+03 0. -1.
      622    1    1    2    0    0 -0.13653254427E-02  0.16877235933E-03  0.39589386102E+01  0.39589570359E+01  0.12000000000E-01 0. -1.
</event>
<event>
 5   0  0.3564000E+09  0.9118800E+02  0.7818608E-02  0.1180000E+00
       11   -1    0    0    0    0  0.00000000000E+00  0.00000000000E+00  0.39999999673E+01  0.40000000000E+01  0.51109989000E-03 0.  1.
     -623   -1    0    0    0    0  0.00000000000E+00  0.00000000000E+00  0.12525980253E-10  0.17130000000E+03  0.17130000000E+03 0.  1.
       11    1    1    2    0    0  0.10068815788E-02  0.29126115066E-02  0.16938089577E+00  0.16940969922E+00  0.51109989000E-03 0.  1.
     -623    1    1    2    0    0 -0.10120937325E-02 -0.24042967822E-02  0.47620518507E-04  0.17130000002E+03  0.17130000000E+03 0.  1.
      622    1    1    2    0    0  0.52121528047E-05 -0.50831472638E-03  0.38305714478E+01  0.38305902776E+01  0.12000000000E-01 0.  1.
</event>
<event>
 5   0  0.3564000E+09  0.9118800E+02  0.7818608E-02  0.1180000E+00
       11   -1    0    0    0    0  0.00000000000E+00  0.00000000000E+00  0.39999999673E+01  0.40000000000E+01  0.51109989000E-03 0. -1.
     -623   -1    0    0    0    0  0.00000000000E+00  0.00000000000E+00  0.12525980253E-10  0.17130000000E+03  0.17130000000E+03 0.  1.
       11    1    1    2    0    0 -0.34007457730E-02  0.87865159059E-03  0.40615667278E+00  0.40617218168E+00  0.51109989000E-03 0. -1.
     -623    1    1    2    0    0  0.63011211569E-03 -0.44587350479E-03  0.36606465209E-04  0.17130000000E+03  0.17130000000E+03 0.  1.
      622    1    1    2    0    0  0.27706336573E-02 -0.43277808580E-03  0.35938066881E+01  0.35938278166E+01  0.12000000000E-01 0.  0.
</event>
<event>
 5   0  0.3564000E+09  0.9118800E+02  0.7818608E-02  0.1180000E+00
       11   -1    0    0    0    0  0.00000000000E+00  0.00000000000E+00  0.39999999673E+01  0.40000000000E+01  0.51109989000E-03 0.  1.
     -623   -1    0    0    0    0  0.00000000000E+00  0.00000000000E+00  0.12525980253E-10  0.17130000000E+03  0.17130000000E+03 0.  1.
       11    1    1    2    0    0  0.27244839262E-02  0.58385637029E-04  0.83605924204E-01  0.83651885852E-01  0.51109989000E-03 0.  1.
     -623    1    1    2    0    0 -0.77943965506E-03 -0.24013852055E-03  0.64802699577E-04  0.17130000000E+03  0.17130000000E+03 0.  1.
      622    1    1    2    0    0 -0.19450442708E-02  0.18175288363E-03  0.39163292422E+01  0.39163481140E+01  0.12000000000E-01 0.  1.
</event>
<event>
 5   0  0.3564000E+09  0.9118800E+02  0.7818608E-02  0.1180000E+00
       11   -1    0    0    0    0  0.00000000000E+00  0.00000000000E+00  0.39999999673E+01  0.40000000000E+01  0.51109989000E-03 0. -1.
     -623   -1    0    0    0    0  0.00000000000E+00  0.00000000000E+00  0.12525980253E-10  0.17130000000E+03  0.17130000000E+03 0. -1.
       11    1    1    2    0    0 -0.13522989658E-02  0.26004958694E-03  0.41939939317E-01  0.41965653439E-01  0.51109989000E-03 0. -1.
     -623    1    1    2    0    0 -0.67000599676E-03 -0.31467810902E-03  0.44390991129E-04  0.17130000000E+03  0.17130000000E+03 0. -1.
      622    1    1    2    0    0  0.20223049626E-02  0.54628522073E-04  0.39580156371E+01  0.39580343450E+01  0.12000000000E-01 0. -1.
</event>
<event>
 5   0  0.3564000E+09  0.9118800E+02  0.7818608E-02  0.1180000E+00
       11   -1    0    0    0    0  0.00000000000E+00  0.00000000000E+00  0.39999999673E+01  0.40000000000E+01  0.51109989000E-03 0.  1.
     -623   -1    0    0    0    0  0.00000000000E+00  0.00000000000E+00  0.12525980253E-10  0.17130000000E+03  0.17130000000E+03 0.  1.
       11    1    1    2    0    0  0.12442825229E-01  0.21848789630E-02  0.35316083478E+00  0.35338708810E+00  0.51109989000E-03 0.  1.
     -623    1    1    2    0    0 -0.12744460180E-01  0.37074401826E-02  0.25125248828E-03  0.17130000051E+03  0.17130000000E+03 0.  1.
      622    1    1    2    0    0  0.30163495090E-03 -0.58923191456E-02  0.36465878801E+01  0.36466123975E+01  0.12000000000E-01 0.  1.
</event>
<event>
 5   0  0.3564000E+09  0.9118800E+02  0.7818608E-02  0.1180000E+00
       11   -1    0    0    0    0  0.00000000000E+00  0.00000000000E+00  0.39999999673E+01  0.40000000000E+01  0.51109989000E-03 0.  1.
     -623   -1    0    0    0    0  0.00000000000E+00  0.00000000000E+00  0.12525980253E-10  0.17130000000E+03  0.17130000000E+03 0. -1.
       11    1    1    2    0    0  0.12422295709E-03 -0.45379716232E-03  0.55611993831E-01  0.55616332531E-01  0.51109989000E-03 0.  1.
     -623    1    1    2    0    0 -0.12717309328E-02  0.98484883698E-04  0.22747576635E-04  0.17130000000E+03  0.17130000000E+03 0. -1.
      622    1    1    2    0    0  0.11475079739E-02  0.35531227877E-03  0.39443652200E+01  0.39443836567E+01  0.12000000000E-01 0.  1.
</event>
<event>
 5   0  0.3564000E+09  0.9118800E+02  0.7818608E-02  0.1180000E+00
       11   -1    0    0    0    0  0.00000000000E+00  0.00000000000E+00  0.39999999673E+01  0.40000000000E+01  0.51109989000E-03 0.  1.
     -623   -1    0    0    0    0  0.00000000000E+00  0.00000000000E+00  0.12525980253E-10  0.17130000000E+03  0.17130000000E+03 0.  1.
       11    1    1    2    0    0  0.25306757883E-02  0.11657699692E-02  0.11326046257E+01  0.11326081683E+01  0.51109989000E-03 0.  1.
     -623    1    1    2    0    0 -0.48824876486E-03 -0.19704441743E-03  0.29511779313E-04  0.17130000000E+03  0.17130000000E+03 0.  1.
      622    1    1    2    0    0 -0.20424270235E-02 -0.96872555173E-03  0.28673658298E+01  0.28673918309E+01  0.12000000000E-01 0.  1.
</event>
<event>
 5   0  0.3564000E+09  0.9118800E+02  0.7818608E-02  0.1180000E+00
       11   -1    0    0    0    0  0.00000000000E+00  0.00000000000E+00  0.39999999673E+01  0.40000000000E+01  0.51109989000E-03 0.  1.
     -623   -1    0    0    0    0  0.00000000000E+00  0.00000000000E+00  0.12525980253E-10  0.17130000000E+03  0.17130000000E+03 0.  1.
       11    1    1    2    0    0  0.12397238348E-02 -0.70068637035E-03  0.58559386657E+00  0.58559582108E+00  0.51109989000E-03 0.  1.
     -623    1    1    2    0    0  0.11709242145E-02  0.10638599291E-02  0.23886680559E-04  0.17130000001E+03  0.17130000000E+03 0.  1.
      622    1    1    2    0    0 -0.24106480492E-02 -0.36317355877E-03  0.34143822141E+01  0.34144041716E+01  0.12000000000E-01 0.  1.
</event>
<event>
 5   0  0.3564000E+09  0.9118800E+02  0.7818608E-02  0.1180000E+00
       11   -1    0    0    0    0  0.00000000000E+00  0.00000000000E+00  0.39999999673E+01  0.40000000000E+01  0.51109989000E-03 0.  1.
     -623   -1    0    0    0    0  0.00000000000E+00  0.00000000000E+00  0.12525980253E-10  0.17130000000E+03  0.17130000000E+03 0.  1.
       11    1    1    2    0    0 -0.18365504990E-03  0.64086572740E-03  0.90995101920E-01  0.90998979305E-01  0.51109989000E-03 0.  1.
     -623    1    1    2    0    0 -0.55666910543E-03 -0.10377676989E-03  0.22371756784E-04  0.17130000000E+03  0.17130000000E+03 0.  1.
      622    1    1    2    0    0  0.74032415680E-03 -0.53708895724E-03  0.39089825043E+01  0.39090010304E+01  0.12000000000E-01 0.  1.
</event>
<event>
 5   0  0.3564000E+09  0.9118800E+02  0.7818608E-02  0.1180000E+00
       11   -1    0    0    0    0  0.00000000000E+00  0.00000000000E+00  0.39999999673E+01  0.40000000000E+01  0.51109989000E-03 0. -1.
     -623   -1    0    0    0    0  0.00000000000E+00  0.00000000000E+00  0.12525980253E-10  0.17130000000E+03  0.17130000000E+03 0. -1.
       11    1    1    2    0    0  0.42120469103E-02 -0.11707340124E-02  0.10765234212E+00  0.10774228485E+00  0.51109989000E-03 0. -1.
     -623    1    1    2    0    0  0.34075856834E-03  0.23079926711E-03  0.11118515639E-03  0.17130000000E+03  0.17130000000E+03 0. -1.
      622    1    1    2    0    0 -0.45528054787E-02  0.93993474526E-03  0.38922364407E+01  0.38922577153E+01  0.12000000000E-01 0. -1.
</event>
<event>
 5   0  0.3564000E+09  0.9118800E+02  0.7818608E-02  0.1180000E+00
       11   -1    0    0    0    0  0.00000000000E+00  0.00000000000E+00  0.39999999673E+01  0.40000000000E+01  0.51109989000E-03 0.  1.
     -623   -1    0    0    0    0  0.00000000000E+00  0.00000000000E+00  0.12525980253E-10  0.17130000000E+03  0.17130000000E+03 0. -1.
       11    1    1    2    0    0  0.34273930970E-03  0.59109675481E-02  0.31323086276E+00  0.31328723500E+00  0.51109989000E-03 0.  1.
     -623    1    1    2    0    0  0.10248296577E-01  0.35976872519E-02  0.10368883002E-03  0.17130000034E+03  0.17130000000E+03 0. -1.
      622    1    1    2    0    0 -0.10591035881E-01 -0.95086547981E-02  0.36866654137E+01  0.36867124185E+01  0.12000000000E-01 0.  1.
</event>
<event>
 5   0  0.3564000E+09  0.9118800E+02  0.7818608E-02  0.1180000E+00
       11   -1    0    0    0    0  0.00000000000E+00  0.00000000000E+00  0.39999999673E+01  0.40000000000E+01  0.51109989000E-03 0.  1.
     -623   -1    0    0    0    0  0.00000000000E+00  0.00000000000E+00  0.12525980253E-10  0.17130000000E+03  0.17130000000E+03 0. -1.
       11    1    1    2    0    0  0.25805293477E-02  0.12006918191E-01  0.11208717707E+01  0.11209391655E+01  0.51109989000E-03 0.  1.
     -623    1    1    2    0    0 -0.24796037313E-02  0.23110629844E-02  0.12800900777E-03  0.17130000003E+03  0.17130000000E+03 0. -1.
      622    1    1    2    0    0 -0.10092561642E-03 -0.14317981175E-01  0.28790001877E+01  0.28790608009E+01  0.12000000000E-01 0.  1.
</event>
<event>
 5   0  0.3564000E+09  0.9118800E+02  0.7818608E-02  0.1180000E+00
       11   -1    0    0    0    0  0.00000000000E+00  0.00000000000E+00  0.39999999673E+01  0.40000000000E+01  0.51109989000E-03 0. -1.
     -623   -1    0    0    0    0  0.00000000000E+00  0.00000000000E+00  0.12525980253E-10  0.17130000000E+03  0.17130000000E+03 0.  1.
       11    1    1    2    0    0 -0.37819189692E-02  0.42025699025E-02  0.91040570578E-01  0.91217384407E-01  0.51109989000E-03 0. -1.
     -623    1    1    2    0    0  0.36886408226E-02 -0.67632105727E-02  0.19621448274E-03  0.17130000017E+03  0.17130000000E+03 0.  1.
      622    1    1    2    0    0  0.93278146626E-04  0.25606406702E-02  0.39087631823E+01  0.39087824423E+01  0.12000000000E-01 0. -1.
</event>
<event>
 5   0  0.3564000E+09  0.9118800E+02  0.7818608E-02  0.1180000E+00
       11   -1    0    0    0    0  0.00000000000E+00  0.00000000000E+00  0.39999999673E+01  0.40000000000E+01  0.51109989000E-03 0. -1.
     -623   -1    0    0    0    0  0.00000000000E+00  0.00000000000E+00  0.12525980253E-10  0.17130000000E+03  0.17130000000E+03 0. -1.
       11    1    1    2    0    0 -0.22719819364E-02 -0.26720420882E-02  0.24240130907E+00  0.24242722119E+00  0.51109989000E-03 0. -1.
     -623    1    1    2    0    0  0.51327895988E-02  0.26849055450E-03  0.46975710476E-04  0.17130000008E+03  0.17130000000E+03 0. -1.
      622    1    1    2    0    0 -0.28608076618E-02  0.24035515337E-02  0.37575516821E+01  0.37575727012E+01  0.12000000000E-01 0. -1.
</event>
<event>
 5   0  0.3564000E+09  0.9118800E+02  0.7818608E-02  0.1180000E+00
       11   -1    0    0    0    0  0.00000000000E+00  0.00000000000E+00  0.39999999673E+01  0.40000000000E+01  0.51109989000E-03 0. -1.
     -623   -1    0    0    0    0  0.00000000000E+00  0.00000000000E+00  0.12525980253E-10  0.17130000000E+03  0.17130000000E+03 0. -1.
       11    1    1    2    0    0  0.20736216244E-02 -0.47021417660E-03  0.68357287097E+00  0.68357636892E+00  0.51109989000E-03 0. -1.
     -623    1    1    2    0    0  0.46768544807E-04  0.12123614149E-03  0.25871785866E-04  0.17130000000E+03  0.17130000000E+03 0. -1.
      622    1    1    2    0    0 -0.21203901692E-02  0.34897803511E-03  0.33164012246E+01  0.33164236310E+01  0.12000000000E-01 0. -1.
</event>
<event>
 5   0  0.3564000E+09  0.9118800E+02  0.7818608E-02  0.1180000E+00
       11   -1    0    0    0    0  0.00000000000E+00  0.00000000000E+00  0.39999999673E+01  0.40000000000E+01  0.51109989000E-03 0. -1.
     -623   -1    0    0    0    0  0.00000000000E+00  0.00000000000E+00  0.12525980253E-10  0.17130000000E+03  0.17130000000E+03 0.  1.
       11    1    1    2    0    0 -0.88874489612E-03 -0.18697901349E-02  0.44796055877E+00  0.44796563420E+00  0.51109989000E-03 0. -1.
     -623    1    1    2    0    0  0.51616281192E-05  0.50971098879E-04  0.25888489308E-04  0.17130000000E+03  0.17130000000E+03 0.  1.
      622    1    1    2    0    0  0.88358326800E-03  0.18188190360E-02  0.35520135201E+01  0.35520343658E+01  0.12000000000E-01 0. -1.
</event>
<event>
 5   0  0.3564000E+09  0.9118800E+02  0.7818608E-02  0.1180000E+00
       11   -1    0    0    0    0  0.00000000000E+00  0.00000000000E+00  0.39999999673E+01  0.40000000000E+01  0.51109989000E-03 0.  1.
     -623   -1    0    0    0    0  0.00000000000E+00  0.00000000000E+00  0.12525980253E-10  0.17130000000E+03  0.17130000000E+03 0. -1.
       11    1    1    2    0    0 -0.13445208549E-02  0.72082536496E-03  0.36448514221E-01  0.36484006600E-01  0.51109989000E-03 0.  1.
     -623    1    1    2    0    0  0.27589808954E-04  0.13437113903E-03  0.53936579752E-04  0.17130000000E+03  0.17130000000E+03 0. -1.
      622    1    1    2    0    0  0.13169310460E-02 -0.85519650397E-03  0.39634975162E+01  0.39635159930E+01  0.12000000000E-01 0.  1.
</event>
<event>
 5   0  0.3564000E+09  0.9118800E+02  0.7818608E-02  0.1180000E+00
       11   -1    0    0    0    0  0.00000000000E+00  0.00000000000E+00  0.39999999673E+01  0.40000000000E+01  0.51109989000E-03 0. -1.
     -623   -1    0    0    0    0  0.00000000000E+00  0.00000000000E+00  0.12525980253E-10  0.17130000000E+03  0.17130000000E+03 0. -1.
       11    1    1    2    0    0  0.29913361832E-02 -0.14294214724E-01  0.11380912486E+01  0.11381850571E+01  0.51109989000E-03 0. -1.
     -623    1    1    2    0    0  0.32307058526E-03  0.17319266625E-01  0.12332876229E-03  0.17130000088E+03  0.17130000000E+03 0. -1.
      622    1    1    2    0    0 -0.33144067686E-02 -0.30250519081E-02  0.28617853917E+01  0.28618140688E+01  0.12000000000E-01 0.  1.
</event>
<event>
 5   0  0.3564000E+09  0.9118800E+02  0.7818608E-02  0.1180000E+00
       11   -1    0    0    0    0  0.00000000000E+00  0.00000000000E+00  0.39999999673E+01  0.40000000000E+01  0.51109989000E-03 0.  1.
     -623   -1    0    0    0    0  0.00000000000E+00  0.00000000000E+00  0.12525980253E-10  0.17130000000E+03  0.17130000000E+03 0.  1.
       11    1    1    2    0    0  0.12090227022E-02 -0.27994638507E-03  0.81471594185E+00  0.81471704734E+00  0.51109989000E-03 0.  1.
     -623    1    1    2    0    0 -0.95386481874E-04  0.31894651382E-04  0.23881255888E-04  0.17130000000E+03  0.17130000000E+03 0.  1.
      622    1    1    2    0    0 -0.11136362203E-02  0.24805173368E-03  0.31852601443E+01  0.31852829526E+01  0.12000000000E-01 0.  1.
</event>
<event>
 5   0  0.3564000E+09  0.9118800E+02  0.7818608E-02  0.1180000E+00
       11   -1    0    0    0    0  0.00000000000E+00  0.00000000000E+00  0.39999999673E+01  0.40000000000E+01  0.51109989000E-03 0.  1.
     -623   -1    0    0    0    0  0.00000000000E+00  0.00000000000E+00  0.12525980253E-10  0.17130000000E+03  0.17130000000E+03 0.  1.
       11    1    1    2    0    0 -0.45331544721E-03  0.59905782994E-03  0.65694501469E-01  0.65700784702E-01  0.51109989000E-03 0.  1.
     -623    1    1    2    0    0 -0.16324702139E-03 -0.14741688201E-03  0.24625604350E-04  0.17130000000E+03  0.17130000000E+03 0.  1.
      622    1    1    2    0    0  0.61656246860E-03 -0.45164094793E-03  0.39342808403E+01  0.39342992152E+01  0.12000000000E-01 0.  1.
</event>
<event>
 5   0  0.3564000E+09  0.9118800E+02  0.7818608E-02  0.1180000E+00
       11   -1    0    0    0    0  0.00000000000E+00  0.00000000000E+00  0.39999999673E+01  0.40000000000E+01  0.51109989000E-03 0.  1.
     -623   -1    0    0    0    0  0.00000000000E+00  0.00000000000E+00  0.12525980253E-10  0.17130000000E+03  0.17130000000E+03 0.  1.
       11    1    1    2    0    0 -0.50593506396E-03  0.27343936436E-02  0.59909642234E-01  0.59976323117E-01  0.51109989000E-03 0.  1.
     -623    1    1    2    0    0 -0.61220075153E-04  0.73816535059E-04  0.85963921217E-04  0.17130000000E+03  0.17130000000E+03 0.  1.
      622    1    1    2    0    0  0.56715513919E-03 -0.28082101787E-02  0.39400043666E+01  0.39400236822E+01  0.12000000000E-01 0.  1.
</event>
<event>
 5   0  0.3564000E+09  0.9118800E+02  0.7818608E-02  0.1180000E+00
       11   -1    0    0    0    0  0.00000000000E+00  0.00000000000E+00  0.39999999673E+01  0.40000000000E+01  0.51109989000E-03 0. -1.
     -623   -1    0    0    0    0  0.00000000000E+00  0.00000000000E+00  0.12525980253E-10  0.17130000000E+03  0.17130000000E+03 0. -1.
       11    1    1    2    0    0  0.52469927109E-02  0.52013883450E-02  0.38865900636E+00  0.38872955871E+00  0.51109989000E-03 0. -1.
     -623    1    1    2    0    0 -0.22367031446E-02 -0.81004797861E-03  0.94398538051E-04  0.17130000002E+03  0.17130000000E+03 0. -1.
      622    1    1    2    0    0 -0.30102895664E-02 -0.43913403664E-02  0.36112465625E+01  0.36112704247E+01  0.12000000000E-01 0. -1.
</event>
<event>
 5   0  0.3564000E+09  0.9118800E+02  0.7818608E-02  0.1180000E+00
       11   -1    0    0    0    0  0.00000000000E+00  0.00000000000E+00  0.39999999673E+01  0.40000000000E+01  0.51109989000E-03 0.  1.
     -623   -1    0    0    0    0  0.00000000000E+00  0.00000000000E+00  0.12525980253E-10  0.17130000000E+03  0.17130000000E+03 0.  1.
       11    1    1    2    0    0  0.29883988482E-02  0.28785101722E-03  0.33678708654E+00  0.33680085551E+00  0.51109989000E-03 0.  1.
     -623    1    1    2    0    0 -0.77571473304E-03 -0.16636818160E-02  0.34327805583E-04  0.17130000001E+03  0.17130000000E+03 0.  1.
      622    1    1    2    0    0 -0.22126841134E-02  0.13758308025E-02  0.36631785619E+01  0.36631991435E+01  0.12000000000E-01 0.  1.
</event>
<event>
 5   0  0.3564000E+09  0.9118800E+02  0.7818608E-02  0.1180000E+00
       11   -1    0    0    0    0  0.00000000000E+00  0.00000000000E+00  0.39999999673E+01  0.40000000000E+01  0.51109989000E-03 0. -1.
     -623   -1    0    0    0    0  0.00000000000E+00  0.00000000000E+00  0.12525980253E-10  0.17130000000E+03  0.17130000000E+03 0. -1.
       11    1    1    2    0    0  0.15502386895E-02  0.10923964329E-02  0.27682142564E+00  0.27682839357E+00  0.51109989000E-03 0. -1.
     -623    1    1    2    0    0  0.35545174883E-04 -0.13208586007E-03  0.26735306495E-04  0.17130000000E+03  0.17130000000E+03 0. -1.
      622    1    1    2    0    0 -0.15857838644E-02 -0.96031057278E-03  0.37231518071E+01  0.37231716071E+01  0.12000000000E-01 0. -1.
</event>
<event>
 5   0  0.3564000E+09  0.9118800E+02  0.7818608E-02  0.1180000E+00
       11   -1    0    0    0    0  0.00000000000E+00  0.00000000000E+00  0.39999999673E+01  0.40000000000E+01  0.51109989000E-03 0. -1.
     -623   -1    0    0    0    0  0.00000000000E+00  0.00000000000E+00  0.12525980253E-10  0.17130000000E+03  0.17130000000E+03 0. -1.
       11    1    1    2    0    0 -0.89941101038E-03  0.12207698931E-02  0.37802916121E-01  0.37836766638E-01  0.51109989000E-03 0. -1.
     -623    1    1    2    0    0 -0.17125194704E-03  0.11143153776E-03  0.52358563738E-04  0.17130000000E+03  0.17130000000E+03 0. -1.
      622    1    1    2    0    0  0.10706629574E-02 -0.13322014309E-02  0.39621446920E+01  0.39621632326E+01  0.12000000000E-01 0. -1.
</event>
<event>
 5   0  0.3564000E+09  0.9118800E+02  0.7818608E-02  0.1180000E+00
       11   -1    0    0    0    0  0.00000000000E+00  0.00000000000E+00  0.39999999673E+01  0.40000000000E+01  0.51109989000E-03 0.  1.
     -623   -1    0    0    0    0  0.00000000000E+00  0.00000000000E+00  0.12525980253E-10  0.17130000000E+03  0.17130000000E+03 0.  1.
       11    1    1    2    0    0 -0.59313254778E-03  0.13481826636E-02  0.46378828405E-01  0.46405025052E-01  0.51109989000E-03 0.  1.
     -623    1    1    2    0    0  0.12122102056E-01 -0.92312974519E-03  0.61639354175E-04  0.17130000043E+03  0.17130000000E+03 0.  1.
      622    1    1    2    0    0 -0.11528969499E-01 -0.42505291913E-03  0.39535594965E+01  0.39535945404E+01  0.12000000000E-01 0.  1.
</event>
<event>
 5   0  0.3564000E+09  0.9118800E+02  0.7818608E-02  0.1180000E+00
       11   -1    0    0    0    0  0.00000000000E+00  0.00000000000E+00  0.39999999673E+01  0.40000000000E+01  0.51109989000E-03 0.  1.
     -623   -1    0    0    0    0  0.00000000000E+00  0.00000000000E+00  0.12525980253E-10  0.17130000000E+03  0.17130000000E+03 0.  1.
       11    1    1    2    0    0  0.41245889734E-03  0.13002179484E-01  0.37018744355E+00  0.37041629469E+00  0.51109989000E-03 0.  1.
     -623    1    1    2    0    0 -0.19512721061E-02  0.34729634451E-02  0.28642009550E-03  0.17130000005E+03  0.17130000000E+03 0.  1.
      622    1    1    2    0    0  0.15388132087E-02 -0.16475142929E-01  0.36295261037E+01  0.36295836587E+01  0.12000000000E-01 0.  1.
</event>
<event>
 5   0  0.3564000E+09  0.9118800E+02  0.7818608E-02  0.1180000E+00
       11   -1    0    0    0    0  0.00000000000E+00  0.00000000000E+00  0.39999999673E+01  0.40000000000E+01  0.51109989000E-03 0.  1.
     -623   -1    0    0    0    0  0.00000000000E+00  0.00000000000E+00  0.12525980253E-10  0.17130000000E+03  0.17130000000E+03 0. -1.
       11    1    1    2    0    0  0.79221795127E-03  0.53236788924E-03  0.62824891556E-01  0.62834220350E-01  0.51109989000E-03 0.  1.
     -623    1    1    2    0    0 -0.10469532955E-02  0.29368292696E-02  0.29148513405E-04  0.17130000003E+03  0.17130000000E+03 0. -1.
      622    1    1    2    0    0  0.25473534393E-03 -0.34691971580E-02  0.39371459261E+01  0.39371657501E+01  0.12000000000E-01 0.  1.
</event>
<event>
 5   0  0.3564000E+09  0.9118800E+02  0.7818608E-02  0.1180000E+00
       11   -1    0    0    0    0  0.00000000000E+00  0.00000000000E+00  0.39999999673E+01  0.40000000000E+01  0.51109989000E-03 0.  1.
     -623   -1    0    0    0    0  0.00000000000E+00  0.00000000000E+00  0.12525980253E-10  0.17130000000E+03  0.17130000000E+03 0. -1.
       11    1    1    2    0    0 -0.11196074223E-03  0.20233389792E-02  0.74011885343E+00  0.74012180407E+00  0.51109989000E-03 0.  1.
     -623    1    1    2    0    0  0.16904828670E-02 -0.20247051633E-02  0.25407284099E-04  0.17130000002E+03  0.17130000000E+03 0. -1.
      622    1    1    2    0    0 -0.15785221303E-02  0.13661906859E-05  0.32598557198E+01  0.32598781887E+01  0.12000000000E-01 0.  1.
</event>
<event>
 5   0  0.3564000E+09  0.9118800E+02  0.7818608E-02  0.1180000E+00
       11   -1    0    0    0    0  0.00000000000E+00  0.00000000000E+00  0.39999999673E+01  0.40000000000E+01  0.51109989000E-03 0. -1.
     -623   -1    0    0    0    0  0.00000000000E+00  0.00000000000E+00  0.12525980253E-10  0.17130000000E+03  0.17130000000E+03 0.  1.
       11    1    1    2    0    0  0.24591088256E-03 -0.48564633404E-02  0.17138312387E+00  0.17145285672E+00  0.51109989000E-03 0. -1.
     -623    1    1    2    0    0 -0.27887756556E-02  0.42571291685E-02  0.89473351804E-04  0.17130000008E+03  0.17130000000E+03 0.  1.
      622    1    1    2    0    0  0.25428647730E-02  0.59933417195E-03  0.38285273701E+01  0.38285470677E+01  0.12000000000E-01 0. -1.
</event>
<event>
 5   0  0.3564000E+09  0.9118800E+02  0.7818608E-02  0.1180000E+00
       11   -1    0    0    0    0  0.00000000000E+00  0.00000000000E+00  0.39999999673E+01  0.40000000000E+01  0.51109989000E-03 0.  1.
     -623   -1    0    0    0    0  0.00000000000E+00  0.00000000000E+00  0.12525980253E-10  0.17130000000E+03  0.17130000000E+03 0.  1.
       11    1    1    2    0    0  0.49435605773E-02  0.30758971457E-02  0.92681909872E+00  0.92683752778E+00  0.51109989000E-03 0.  1.
     -623    1    1    2    0    0  0.42932819347E-04 -0.19788902054E-03  0.47218469038E-04  0.17130000000E+03  0.17130000000E+03 0.  1.
      622    1    1    2    0    0 -0.49864933968E-02 -0.28780081246E-02  0.30731336615E+01  0.30731624834E+01  0.12000000000E-01 0.  1.
</event>
<event>
 5   0  0.3564000E+09  0.9118800E+02  0.7818608E-02  0.1180000E+00
       11   -1    0    0    0    0  0.00000000000E+00  0.00000000000E+00  0.39999999673E+01  0.40000000000E+01  0.51109989000E-03 0. -1.
     -623   -1    0    0    0    0  0.00000000000E+00  0.00000000000E+00  0.12525980253E-10  0.17130000000E+03  0.17130000000E+03 0.  1.
       11    1    1    2    0    0 -0.72410616568E-04 -0.29467926039E-03  0.48996063873E+00  0.48996099927E+00  0.51109989000E-03 0. -1.
     -623    1    1    2    0    0 -0.35822324030E-03  0.26220271649E-03  0.20867696781E-04  0.17130000000E+03  0.17130000000E+03 0.  1.
      622    1    1    2    0    0  0.43063385686E-03  0.32476543894E-04  0.35100184609E+01  0.35100390001E+01  0.12000000000E-01 0. -1.
</event>
<event>
 5   0  0.3564000E+09  0.9118800E+02  0.7818608E-02  0.1180000E+00
       11   -1    0    0    0    0  0.00000000000E+00  0.00000000000E+00  0.39999999673E+01  0.40000000000E+01  0.51109989000E-03 0.  1.
     -623   -1    0    0    0    0  0.00000000000E+00  0.00000000000E+00  0.12525980253E-10  0.17130000000E+03  0.17130000000E+03 0.  1.
       11    1    1    2    0    0  0.13217437312E-02  0.30315000699E-02  0.57931185373E+00  0.57932151875E+00  0.51109989000E-03 0.  1.
     -623    1    1    2    0    0  0.11142681403E-02 -0.32261674492E-02  0.31587852487E-04  0.17130000003E+03  0.17130000000E+03 0.  1.
      622    1    1    2    0    0 -0.24360118715E-02  0.19466737931E-03  0.34206565258E+01  0.34206784472E+01  0.12000000000E-01 0.  1.
</event>
<event>
 5   0  0.3564000E+09  0.9118800E+02  0.7818608E-02  0.1180000E+00
       11   -1    0    0    0    0  0.00000000000E+00  0.00000000000E+00  0.39999999673E+01  0.40000000000E+01  0.51109989000E-03 0.  1.
     -623   -1    0    0    0    0  0.00000000000E+00  0.00000000000E+00  0.12525980253E-10  0.17130000000E+03  0.17130000000E+03 0.  1.
       11    1    1    2    0    0  0.11459175373E-02  0.37656292674E-03  0.11900304886E+01  0.11900312097E+01  0.51109989000E-03 0.  1.
     -623    1    1    2    0    0 -0.19845530656E-02  0.14633779371E-03  0.26496949408E-04  0.17130000001E+03  0.17130000000E+03 0.  1.
      622    1    1    2    0    0  0.83863552823E-03 -0.52290072045E-03  0.28099429818E+01  0.28099687788E+01  0.12000000000E-01 0.  1.
</event>
<event>
 5   0  0.3564000E+09  0.9118800E+02  0.7818608E-02  0.1180000E+00
       11   -1    0    0    0    0  0.00000000000E+00  0.00000000000E+00  0.39999999673E+01  0.40000000000E+01  0.51109989000E-03 0.  1.
     -623   -1    0    0    0    0  0.00000000000E+00  0.00000000000E+00  0.12525980253E-10  0.17130000000E+03  0.17130000000E+03 0. -1.
       11    1    1    2    0    0  0.26270676018E-02 -0.91619311143E-03  0.55141048679E-01  0.55213561433E-01  0.51109989000E-03 0.  1.
     -623    1    1    2    0    0 -0.15621447745E-03 -0.49968954768E-03  0.91760842541E-04  0.17130000000E+03  0.17130000000E+03 0. -1.
      622    1    1    2    0    0 -0.24708531243E-02  0.14158826591E-02  0.39447671578E+01  0.39447864377E+01  0.12000000000E-01 0.  1.
</event>
<event>
 5   0  0.3564000E+09  0.9118800E+02  0.7818608E-02  0.1180000E+00
       11   -1    0    0    0    0  0.00000000000E+00  0.00000000000E+00  0.39999999673E+01  0.40000000000E+01  0.51109989000E-03 0.  1.
     -623   -1    0    0    0    0  0.00000000000E+00  0.00000000000E+00  0.12525980253E-10  0.17130000000E+03  0.17130000000E+03 0. -1.
       11    1    1    2    0    0 -0.20046916592E-02  0.25928909613E-02  0.65172678847E+00  0.65173522991E+00  0.51109989000E-03 0.  1.
     -623    1    1    2    0    0 -0.12836614662E-02 -0.14303039890E-02  0.31739933839E-04  0.17130000001E+03  0.17130000000E+03 0. -1.
      622    1    1    2    0    0  0.32883531263E-02 -0.11625869714E-02  0.33482414416E+01  0.33482647619E+01  0.12000000000E-01 0.  1.
</event>
<event>
 5   0  0.3564000E+09  0.9118800E+02  0.7818608E-02  0.1180000E+00
       11   -1    0    0    0    0  0.00000000000E+00  0.00000000000E+00  0.39999999673E+01  0.40000000000E+01  0.51109989000E-03 0. -1.
     -623   -1    0    0    0    0  0.00000000000E+00  0.00000000000E+00  0.12525980253E-10  0.17130000000E+03  0.17130000000E+03 0. -1.
       11    1    1    2    0    0  0.80766942940E-03  0.91200483447E-03  0.10966898957E+00  0.10967694644E+00  0.51109989000E-03 0. -1.
     -623    1    1    2    0    0  0.26536408840E-03 -0.42939289357E-03  0.26610392784E-04  0.17130000000E+03  0.17130000000E+03 0. -1.
      622    1    1    2    0    0 -0.10730335187E-02 -0.48261193946E-03  0.38903043809E+01  0.38903230663E+01  0.12000000000E-01 0. -1.
</event>
<event>
 5   0  0.3564000E+09  0.9118800E+02  0.7818608E-02  0.1180000E+00
       11   -1    0    0    0    0  0.00000000000E+00  0.00000000000E+00  0.39999999673E+01  0.40000000000E+01  0.51109989000E-03 0. -1.
     -623   -1    0    0    0    0  0.00000000000E+00  0.00000000000E+00  0.12525980253E-10  0.17130000000E+03  0.17130000000E+03 0. -1.
       11    1    1    2    0    0  0.21537411386E-02  0.20687907030E-02  0.34356914118E+00  0.34358250026E+00  0.51109989000E-03 0. -1.
     -623    1    1    2    0    0 -0.31089093195E-03  0.16977850998E-03  0.34167941137E-04  0.17130000000E+03  0.17130000000E+03 0. -1.
      622    1    1    2    0    0 -0.18428502066E-02 -0.22385692130E-02  0.36563966582E+01  0.36564174994E+01  0.12000000000E-01 0. -1.
</event>
<event>
 5   0  0.3564000E+09  0.9118800E+02  0.7818608E-02  0.1180000E+00
       11   -1    0    0    0    0  0.00000000000E+00  0.00000000000E+00  0.39999999673E+01  0.40000000000E+01  0.51109989000E-03 0.  1.
     -623   -1    0    0    0    0  0.00000000000E+00  0.00000000000E+00  0.12525980253E-10  0.17130000000E+03  0.17130000000E+03 0.  1.
       11    1    1    2    0    0 -0.20760872309E-04  0.92545554731E-04  0.11692049301E-01  0.11703599261E-01  0.51109989000E-03 0.  1.
     -623    1    1    2    0    0  0.30330857318E-03 -0.57546852443E-03  0.29610664384E-04  0.17130000000E+03  0.17130000000E+03 0.  1.
      622    1    1    2    0    0 -0.28254770215E-03  0.48292297212E-03  0.39882783242E+01  0.39882964163E+01  0.12000000000E-01 0.  1.
</event>
<event>
 5   0  0.3564000E+09  0.9118800E+02  0.7818608E-02  0.1180000E+00
       11   -1    0    0    0    0  0.00000000000E+00  0.00000000000E+00  0.39999999673E+01  0.40000000000E+01  0.51109989000E-03 0. -1.
     -623   -1    0    0    0    0  0.00000000000E+00  0.00000000000E+00  0.12525980253E-10  0.17130000000E+03  0.17130000000E+03 0. -1.
       11    1    1    2    0    0  0.28202748128E-02  0.10305676756E-02  0.42926631465E+00  0.42927712044E+00  0.51109989000E-03 0. -1.
     -623    1    1    2    0    0 -0.25026385082E-02  0.14536039626E-02  0.31839904951E-04  0.17130000002E+03  0.17130000000E+03 0. -1.
      622    1    1    2    0    0 -0.31763629886E-03 -0.24841716416E-02  0.35707018220E+01  0.35707228643E+01  0.12000000000E-01 0. -1.
</event>
<event>
 5   0  0.3564000E+09  0.9118800E+02  0.7818608E-02  0.1180000E+00
       11   -1    0    0    0    0  0.00000000000E+00  0.00000000000E+00  0.39999999673E+01  0.40000000000E+01  0.51109989000E-03 0.  1.
     -623   -1    0    0    0    0  0.00000000000E+00  0.00000000000E+00  0.12525980253E-10  0.17130000000E+03  0.17130000000E+03 0.  1.
       11    1    1    2    0    0 -0.92409309179E-03  0.14172658576E-04  0.18976914407E+00  0.18977208280E+00  0.51109989000E-03 0.  1.
     -623    1    1    2    0    0  0.47451359812E-05 -0.95059188476E-04  0.21914442761E-04  0.17130000000E+03  0.17130000000E+03 0.  1.
      622    1    1    2    0    0  0.91934795580E-03  0.80886529901E-04  0.38102089088E+01  0.38102279172E+01  0.12000000000E-01 0.  1.
</event>
<event>
 5   0  0.3564000E+09  0.9118800E+02  0.7818608E-02  0.1180000E+00
       11   -1    0    0    0    0  0.00000000000E+00  0.00000000000E+00  0.39999999673E+01  0.40000000000E+01  0.51109989000E-03 0. -1.
     -623   -1    0    0    0    0  0.00000000000E+00  0.00000000000E+00  0.12525980253E-10  0.17130000000E+03  0.17130000000E+03 0. -1.
       11    1    1    2    0    0 -0.16508990371E-02  0.17280870137E-02  0.85866269509E-02  0.89276613601E-02  0.51109989000E-03 0. -1.
     -623    1    1    2    0    0 -0.37213521169E-03 -0.19028831760E-02  0.35956998278E-03  0.17130000001E+03  0.17130000000E+03 0. -1.
      622    1    1    2    0    0  0.20230342488E-02  0.17479616229E-03  0.39910537704E+01  0.39910723273E+01  0.12000000000E-01 0. -1.
</event>
<event>
 5   0  0.3564000E+09  0.9118800E+02  0.7818608E-02  0.1180000E+00
       11   -1    0    0    0    0  0.00000000000E+00  0.00000000000E+00  0.39999999673E+01  0.40000000000E+01  0.51109989000E-03 0.  1.
     -623   -1    0    0    0    0  0.00000000000E+00  0.00000000000E+00  0.12525980253E-10  0.17130000000E+03  0.17130000000E+03 0.  1.
       11    1    1    2    0    0  0.55307505016E-03  0.51436669650E-03  0.78019230768E-01  0.78024560595E-01  0.51109989000E-03 0.  1.
     -623    1    1    2    0    0 -0.23425081110E-03  0.89505700920E-04  0.23714960464E-04  0.17130000000E+03  0.17130000000E+03 0.  1.
      622    1    1    2    0    0 -0.31882423906E-03 -0.60387239742E-03  0.39219570216E+01  0.39219754392E+01  0.12000000000E-01 0.  1.
</event>
<event>
 5   0  0.3564000E+09  0.9118800E+02  0.7818608E-02  0.1180000E+00
       11   -1    0    0    0    0  0.00000000000E+00  0.00000000000E+00  0.39999999673E+01  0.40000000000E+01  0.51109989000E-03 0. -1.
     -623   -1    0    0    0    0  0.00000000000E+00  0.00000000000E+00  0.12525980253E-10  0.17130000000E+03  0.17130000000E+03 0. -1.
       11    1    1    2    0    0 -0.54143332203E-03  0.60451800791E-03  0.39430904478E-01  0.39442566353E-01  0.51109989000E-03 0. -1.
     -623    1    1    2    0    0  0.22036251394E-03  0.46258322504E-03  0.29966075366E-04  0.17130000000E+03  0.17130000000E+03 0. -1.
      622    1    1    2    0    0  0.32107080809E-03 -0.10671012330E-02  0.39605390968E+01  0.39605574329E+01  0.12000000000E-01 0. -1.
</event>
<event>
 5   0  0.3564000E+09  0.9118800E+02  0.7818608E-02  0.1180000E+00
       11   -1    0    0    0    0  0.00000000000E+00  0.00000000000E+00  0.39999999673E+01  0.40000000000E+01  0.51109989000E-03 0. -1.
     -623   -1    0    0    0    0  0.00000000000E+00  0.00000000000E+00  0.12525980253E-10  0.17130000000E+03  0.17130000000E+03 0.  1.
       11    1    1    2    0    0 -0.16644403096E-02 -0.35168420278E-03  0.88721071320E+00  0.88721249139E+00  0.51109989000E-03 0. -1.
     -623    1    1    2    0    0  0.82057948252E-04  0.13369275731E-03  0.25285943125E-04  0.17130000000E+03  0.17130000000E+03 0.  1.
      622    1    1    2    0    0  0.15823823614E-02  0.21799144548E-03  0.31127639679E+01  0.31127875082E+01  0.12000000000E-01 0. -1.
</event>
<event>
 5   0  0.3564000E+09  0.9118800E+02  0.7818608E-02  0.1180000E+00
       11   -1    0    0    0    0  0.00000000000E+00  0.00000000000E+00  0.39999999673E+01  0.40000000000E+01  0.51109989000E-03 0.  1.
     -623   -1    0    0    0    0  0.00000000000E+00  0.00000000000E+00  0.12525980253E-10  0.17130000000E+03  0.17130000000E+03 0. -1.
       11    1    1    2    0    0  0.25445820834E-03  0.69890628666E-03  0.70215004103E+00  0.70215062099E+00  0.51109989000E-03 0.  1.
     -623    1    1    2    0    0  0.14572295122E-02 -0.75632695558E-04  0.22889131631E-04  0.17130000001E+03  0.17130000000E+03 0. -1.
      622    1    1    2    0    0 -0.17116877205E-02 -0.62327359110E-03  0.32978270372E+01  0.32978493728E+01  0.12000000000E-01 0.  1.
</event>
<event>
 5   0  0.3564000E+09  0.9118800E+02  0.7818608E-02  0.1180000E+00
       11   -1    0    0    0    0  0.00000000000E+00  0.00000000000E+00  0.39999999673E+01  0.40000000000E+01  0.51109989000E-03 0.  1.
     -623   -1    0    0    0    0  0.00000000000E+00  0.00000000000E+00  0.12525980253E-10  0.17130000000E+03  0.17130000000E+03 0.  1.
       11    1    1    2    0    0  0.94607139141E-02 -0.17512846679E-01  0.43144635891E+00  0.43190557619E+00  0.51109989000E-03 0.  1.
     -623    1    1    2    0    0  0.10037615514E-01 -0.89989585550E-02  0.63166945283E-03  0.17130000053E+03  0.17130000000E+03 0.  1.
      622    1    1    2    0    0 -0.19498329427E-01  0.26511805233E-01  0.35679219388E+01  0.35680938920E+01  0.12000000000E-01 0.  1.
</event>
<event>
 5   0  0.3564000E+09  0.9118800E+02  0.7818608E-02  0.1180000E+00
       11   -1    0    0    0    0  0.00000000000E+00  0.00000000000E+00  0.39999999673E+01  0.40000000000E+01  0.51109989000E-03 0.  1.
     -623   -1    0    0    0    0  0.00000000000E+00  0.00000000000E+00  0.12525980253E-10  0.17130000000E+03  0.17130000000E+03 0.  1.
       11    1    1    2    0    0 -0.12286341546E-02  0.18601567259E-02  0.11259229694E-01  0.11489177574E-01  0.51109989000E-03 0.  1.
     -623    1    1    2    0    0  0.17693689801E-02 -0.11684841523E-02  0.24807706270E-03  0.17130000001E+03  0.17130000000E+03 0.  1.
      622    1    1    2    0    0 -0.54073482543E-03 -0.69167257368E-03  0.39884926604E+01  0.39885108090E+01  0.12000000000E-01 0.  1.
</event>
<event>
 5   0  0.3564000E+09  0.9118800E+02  0.7818608E-02  0.1180000E+00
       11   -1    0    0    0    0  0.00000000000E+00  0.00000000000E+00  0.39999999673E+01  0.40000000000E+01  0.51109989000E-03 0. -1.
     -623   -1    0    0    0    0  0.00000000000E+00  0.00000000000E+00  0.12525980253E-10  0.17130000000E+03  0.17130000000E+03 0. -1.
       11    1    1    2    0    0  0.30022058038E-02  0.54142480248E-02  0.39250583434E+00  0.39255498791E+00  0.51109989000E-03 0. -1.
     -623    1    1    2    0    0 -0.32217759733E-02  0.17641413546E-03  0.73448906315E-04  0.17130000003E+03  0.17130000000E+03 0. -1.
      622    1    1    2    0    0  0.21957016946E-03 -0.55906621602E-02  0.36074206841E+01  0.36074449817E+01  0.12000000000E-01 0. -1.
</event>
<event>
 5   0  0.3564000E+09  0.9118800E+02  0.7818608E-02  0.1180000E+00
       11   -1    0    0    0    0  0.00000000000E+00  0.00000000000E+00  0.39999999673E+01  0.40000000000E+01  0.51109989000E-03 0.  1.
     -623   -1    0    0    0    0  0.00000000000E+00  0.00000000000E+00  0.12525980253E-10  0.17130000000E+03  0.17130000000E+03 0.  1.
       11    1    1    2    0    0  0.40793004402E-03 -0.49718365305E-03  0.17485134311E+00  0.17485327280E+00  0.51109989000E-03 0.  1.
     -623    1    1    2    0    0  0.33803878527E-05 -0.42106670966E-04  0.20780034798E-04  0.17130000000E+03  0.17130000000E+03 0.  1.
      622    1    1    2    0    0 -0.41131043187E-03  0.53929032401E-03  0.38251278442E+01  0.38251467272E+01  0.12000000000E-01 0.  1.
</event>
<event>
 5   0  0.3564000E+09  0.9118800E+02  0.7818608E-02  0.1180000E+00
       11   -1    0    0    0    0  0.00000000000E+00  0.00000000000E+00  0.39999999673E+01  0.40000000000E+01  0.51109989000E-03 0.  1.
     -623   -1    0    0    0    0  0.00000000000E+00  0.00000000000E+00  0.12525980253E-10  0.17130000000E+03  0.17130000000E+03 0.  1.
       11    1    1    2    0    0  0.65082239189E-03  0.49717112083E-03  0.11242233371E+00  0.11242647860E+00  0.51109989000E-03 0.  1.
     -623    1    1    2    0    0  0.10287544477E-03  0.12570913218E-03  0.22755877276E-04  0.17130000000E+03  0.17130000000E+03 0.  1.
      622    1    1    2    0    0 -0.75369783637E-03 -0.62288025266E-03  0.38875548668E+01  0.38875735104E+01  0.12000000000E-01 0.  1.
</event>
<event>
 5   0  0.3564000E+09  0.9118800E+02  0.7818608E-02  0.1180000E+00
       11   -1    0    0    0    0  0.00000000000E+00  0.00000000000E+00  0.39999999673E+01  0.40000000000E+01  0.51109989000E-03 0.  1.
     -623   -1    0    0    0    0  0.00000000000E+00  0.00000000000E+00  0.12525980253E-10  0.17130000000E+03  0.17130000000E+03 0.  1.
       11    1    1    2    0    0 -0.34566320646E-02 -0.69022230853E-02  0.64981609379E+00  0.64986214381E+00  0.51109989000E-03 0.  1.
     -623    1    1    2    0    0 -0.15917936332E-02  0.36303883430E-02  0.72956518578E-04  0.17130000005E+03  0.17130000000E+03 0.  1.
      622    1    1    2    0    0  0.50484256979E-02  0.32718347422E-02  0.33501109171E+01  0.33501378103E+01  0.12000000000E-01 0.  1.
</event>
<event>
 5   0  0.3564000E+09  0.9118800E+02  0.7818608E-02  0.1180000E+00
       11   -1    0    0    0    0  0.00000000000E+00  0.00000000000E+00  0.39999999673E+01  0.40000000000E+01  0.51109989000E-03 0.  1.
     -623   -1    0    0    0    0  0.00000000000E+00  0.00000000000E+00  0.12525980253E-10  0.17130000000E+03  0.17130000000E+03 0. -1.
       11    1    1    2    0    0  0.48574519567E-02 -0.77445646224E-03  0.47685223824E-01  0.47940968025E-01  0.51109989000E-03 0.  1.
     -623    1    1    2    0    0 -0.21082751161E-02 -0.57448414631E-02  0.28037283198E-03  0.17130000011E+03  0.17130000000E+03 0. -1.
      622    1    1    2    0    0 -0.27491768406E-02  0.65192979253E-02  0.39520343707E+01  0.39520589224E+01  0.12000000000E-01 0.  1.
</event>
<event>
 5   0  0.3564000E+09  0.9118800E+02  0.7818608E-02  0.1180000E+00
       11   -1    0    0    0    0  0.00000000000E+00  0.00000000000E+00  0.39999999673E+01  0.40000000000E+01  0.51109989000E-03 0. -1.
     -623   -1    0    0    0    0  0.00000000000E+00  0.00000000000E+00  0.12525980253E-10  0.17130000000E+03  0.17130000000E+03 0.  1.
       11    1    1    2    0    0  0.17782685316E-02 -0.11711691402E-02  0.13633854694E+00  0.13635613106E+00  0.51109989000E-03 0. -1.
     -623    1    1    2    0    0 -0.60362746523E-04 -0.81838516512E-04  0.36771923744E-04  0.17130000000E+03  0.17130000000E+03 0.  1.
      622    1    1    2    0    0 -0.17179057851E-02  0.12530076567E-02  0.38636246485E+01  0.38636438689E+01  0.12000000000E-01 0. -1.
</event>
<event>
 5   0  0.3564000E+09  0.9118800E+02  0.7818608E-02  0.1180000E+00
       11   -1    0    0    0    0  0.00000000000E+00  0.00000000000E+00  0.39999999673E+01  0.40000000000E+01  0.51109989000E-03 0.  1.
     -623   -1    0    0    0    0  0.00000000000E+00  0.00000000000E+00  0.12525980253E-10  0.17130000000E+03  0.17130000000E+03 0. -1.
       11    1    1    2    0    0 -0.83298847988E-03 -0.65514237463E-03  0.11370623872E+00  0.11371232575E+00  0.51109989000E-03 0.  1.
     -623    1    1    2    0    0  0.13421932108E-03  0.98008447339E-04  0.24683954064E-04  0.17130000000E+03  0.17130000000E+03 0. -1.
      622    1    1    2    0    0  0.69876915860E-03  0.55713392715E-03  0.38862690505E+01  0.38862876800E+01  0.12000000000E-01 0.  1.
</event>
<event>
 5   0  0.3564000E+09  0.9118800E+02  0.7818608E-02  0.1180000E+00
       11   -1    0    0    0    0  0.00000000000E+00  0.00000000000E+00  0.39999999673E+01  0.40000000000E+01  0.51109989000E-03 0. -1.
     -623   -1    0    0    0    0  0.00000000000E+00  0.00000000000E+00  0.12525980253E-10  0.17130000000E+03  0.17130000000E+03 0.  1.
       11    1    1    2    0    0 -0.11923668629E-01  0.13449853644E-01  0.75067284449E+00  0.75088817617E+00  0.51109989000E-03 0. -1.
     -623    1    1    2    0    0  0.80712177603E-03  0.89147916319E-03  0.28813213649E-03  0.17130000000E+03  0.17130000000E+03 0.  1.
      622    1    1    2    0    0  0.11116546853E-01 -0.14341332807E-01  0.32490389907E+01  0.32491118194E+01  0.12000000000E-01 0. -1.
</event>
<event>
 5   0  0.3564000E+09  0.9118800E+02  0.7818608E-02  0.1180000E+00
       11   -1    0    0    0    0  0.00000000000E+00  0.00000000000E+00  0.39999999673E+01  0.40000000000E+01  0.51109989000E-03 0. -1.
     -623   -1    0    0    0    0  0.00000000000E+00  0.00000000000E+00  0.12525980253E-10  0.17130000000E+03  0.17130000000E+03 0.  1.
       11    1    1    2    0    0  0.35678488040E-02 -0.59120483092E-02  0.27199922073E+00  0.27208733738E+00  0.51109989000E-03 0. -1.
     -623    1    1    2    0    0 -0.53508812677E-02 -0.63812782321E-02  0.12829636862E-03  0.17130000020E+03  0.17130000000E+03 0.  1.
      622    1    1    2    0    0  0.17830324677E-02  0.12293326546E-01  0.37278724533E+01  0.37279124631E+01  0.12000000000E-01 0. -1.
</event>
<event>
 5   0  0.3564000E+09  0.9118800E+02  0.7818608E-02  0.1180000E+00
       11   -1    0    0    0    0  0.00000000000E+00  0.00000000000E+00  0.39999999673E+01  0.40000000000E+01  0.51109989000E-03 0. -1.
     -623   -1    0    0    0    0  0.00000000000E+00  0.00000000000E+00  0.12525980253E-10  0.17130000000E+03  0.17130000000E+03 0. -1.
       11    1    1    2    0    0 -0.17320148613E-02 -0.49494015018E-03  0.21706425595E-01  0.21787036890E-01  0.51109989000E-03 0. -1.
     -623    1    1    2    0    0  0.36528594674E-02 -0.30828864252E-02  0.10081660313E-03  0.17130000007E+03  0.17130000000E+03 0. -1.
      622    1    1    2    0    0 -0.19208446052E-02  0.35778265746E-02  0.39781927241E+01  0.39782128954E+01  0.12000000000E-01 0. -1.
</event>
<event>
 5   0  0.3564000E+09  0.9118800E+02  0.7818608E-02  0.1180000E+00
       11   -1    0    0    0    0  0.00000000000E+00  0.00000000000E+00  0.39999999673E+01  0.40000000000E+01  0.51109989000E-03 0. -1.
     -623   -1    0    0    0    0  0.00000000000E+00  0.00000000000E+00  0.12525980253E-10  0.17130000000E+03  0.17130000000E+03 0.  1.
       11    1    1    2    0    0  0.42232881106E-02 -0.63496563366E-02  0.35598177044E+00  0.35606380946E+00  0.51109989000E-03 0. -1.
     -623    1    1    2    0    0  0.17915540048E-02 -0.10053368810E-02  0.11416464538E-03  0.17130000001E+03  0.17130000000E+03 0.  1.
      622    1    1    2    0    0 -0.60148421152E-02  0.73549932174E-02  0.36439040317E+01  0.36439361776E+01  0.12000000000E-01 0. -1.
</event>
<event>
 5   0  0.3564000E+09  0.9118800E+02  0.7818608E-02  0.1180000E+00
       11   -1    0    0    0    0  0.00000000000E+00  0.00000000000E+00  0.39999999673E+01  0.40000000000E+01  0.51109989000E-03 0.  1.
     -623   -1    0    0    0    0  0.00000000000E+00  0.00000000000E+00  0.12525980253E-10  0.17130000000E+03  0.17130000000E+03 0. -1.
       11    1    1    2    0    0 -0.30035821546E-03 -0.16676721959E-02  0.10919704636E+00  0.10921138906E+00  0.51109989000E-03 0.  1.
     -623    1    1    2    0    0 -0.56796925870E-04  0.69676783831E-04  0.33159929492E-04  0.17130000000E+03  0.17130000000E+03 0. -1.
      622    1    1    2    0    0  0.35715514133E-03  0.15979954121E-02  0.38907697611E+01  0.38907886109E+01  0.12000000000E-01 0.  1.
</event>
<event>
 5   0  0.3564000E+09  0.9118800E+02  0.7818608E-02  0.1180000E+00
       11   -1    0    0    0    0  0.00000000000E+00  0.00000000000E+00  0.39999999673E+01  0.40000000000E+01  0.51109989000E-03 0.  1.
     -623   -1    0    0    0    0  0.00000000000E+00  0.00000000000E+00  0.12525980253E-10  0.17130000000E+03  0.17130000000E+03 0.  1.
       11    1    1    2    0    0 -0.14645571407E-02 -0.11511872397E-02  0.63513865828E-01  0.63543233578E-01  0.51109989000E-03 0.  1.
     -623    1    1    2    0    0 -0.24117175264E-03  0.62470131524E-04  0.48146018147E-04  0.17130000000E+03  0.17130000000E+03 0.  1.
      622    1    1    2    0    0  0.17057288933E-02  0.10887171082E-02  0.39364379555E+01  0.39364567662E+01  0.12000000000E-01 0.  0.
</event>
<event>
 5   0  0.3564000E+09  0.9118800E+02  0.7818608E-02  0.1180000E+00
       11   -1    0    0    0    0  0.00000000000E+00  0.00000000000E+00  0.39999999673E+01  0.40000000000E+01  0.51109989000E-03 0. -1.
     -623   -1    0    0    0    0  0.00000000000E+00  0.00000000000E+00  0.12525980253E-10  0.17130000000E+03  0.17130000000E+03 0. -1.
       11    1    1    2    0    0  0.64595872426E-02  0.41912281716E-02  0.56580169748E+00  0.56585432290E+00  0.51109989000E-03 0. -1.
     -623    1    1    2    0    0 -0.94630683061E-04 -0.40310400022E-03  0.81547145490E-04  0.17130000000E+03  0.17130000000E+03 0. -1.
      622    1    1    2    0    0 -0.63649565596E-02 -0.37881241713E-02  0.34341167227E+01  0.34341456766E+01  0.12000000000E-01 0.  1.
</event>
<event>
 5   0  0.3564000E+09  0.9118800E+02  0.7818608E-02  0.1180000E+00
       11   -1    0    0    0    0  0.00000000000E+00  0.00000000000E+00  0.39999999673E+01  0.40000000000E+01  0.51109989000E-03 0.  1.
     -623   -1    0    0    0    0  0.00000000000E+00  0.00000000000E+00  0.12525980253E-10  0.17130000000E+03  0.17130000000E+03 0. -1.
       11    1    1    2    0    0  0.83178588678E-03 -0.12023096229E-02  0.34205003233E-01  0.34240047961E-01  0.51109989000E-03 0.  1.
     -623    1    1    2    0    0 -0.10045897967E-02  0.62329960845E-03  0.53217661592E-04  0.17130000000E+03  0.17130000000E+03 0. -1.
      622    1    1    2    0    0  0.17280390993E-03  0.57901001443E-03  0.39657417465E+01  0.39657599480E+01  0.12000000000E-01 0.  1.
</event>
<event>
 5   0  0.3564000E+09  0.9118800E+02  0.7818608E-02  0.1180000E+00
       11   -1    0    0    0    0  0.00000000000E+00  0.00000000000E+00  0.39999999673E+01  0.40000000000E+01  0.51109989000E-03 0.  1.
     -623   -1    0    0    0    0  0.00000000000E+00  0.00000000000E+00  0.12525980253E-10  0.17130000000E+03  0.17130000000E+03 0.  1.
       11    1    1    2    0    0 -0.77935182985E-04 -0.88966552615E-02  0.37013334892E+00  0.37024061603E+00  0.51109989000E-03 0.  1.
     -623    1    1    2    0    0  0.46925072656E-02  0.33014016547E-02  0.13441254645E-03  0.17130000010E+03  0.17130000000E+03 0.  1.
      622    1    1    2    0    0 -0.46145720859E-02  0.55952536045E-02  0.36297322087E+01  0.36297592906E+01  0.12000000000E-01 0.  1.
</event>
<event>
 5   0  0.3564000E+09  0.9118800E+02  0.7818608E-02  0.1180000E+00
       11   -1    0    0    0    0  0.00000000000E+00  0.00000000000E+00  0.39999999673E+01  0.40000000000E+01  0.51109989000E-03 0. -1.
     -623   -1    0    0    0    0  0.00000000000E+00  0.00000000000E+00  0.12525980253E-10  0.17130000000E+03  0.17130000000E+03 0.  1.
       11    1    1    2    0    0  0.10009639170E-02 -0.59128367882E-02  0.66495511946E+00  0.66498235742E+00  0.51109989000E-03 0. -1.
     -623    1    1    2    0    0 -0.38004455839E-02  0.46173398213E-02  0.50325480110E-04  0.17130000010E+03  0.17130000000E+03 0.  1.
      622    1    1    2    0    0  0.27994816668E-02  0.12954969669E-02  0.33349945224E+01  0.33350175382E+01  0.12000000000E-01 0. -1.
</event>
<event>
 5   0  0.3564000E+09  0.9118800E+02  0.7818608E-02  0.1180000E+00
       11   -1    0    0    0    0  0.00000000000E+00  0.00000000000E+00  0.39999999673E+01  0.40000000000E+01  0.51109989000E-03 0. -1.
     -623   -1    0    0    0    0  0.00000000000E+00  0.00000000000E+00  0.12525980253E-10  0.17130000000E+03  0.17130000000E+03 0. -1.
       11    1    1    2    0    0  0.21190417486E-01 -0.13040703155E-01  0.10584155049E+01  0.10587080504E+01  0.51109989000E-03 0. -1.
     -623    1    1    2    0    0 -0.25662767437E-02 -0.66420073594E-02  0.44196486058E-03  0.17130000015E+03  0.17130000000E+03 0. -1.
      622    1    1    2    0    0 -0.18624140742E-01  0.19682710515E-01  0.29411424976E+01  0.29412918010E+01  0.12000000000E-01 0. -1.
</event>
<event>
 5   0  0.3564000E+09  0.9118800E+02  0.7818608E-02  0.1180000E+00
       11   -1    0    0    0    0  0.00000000000E+00  0.00000000000E+00  0.39999999673E+01  0.40000000000E+01  0.51109989000E-03 0. -1.
     -623   -1    0    0    0    0  0.00000000000E+00  0.00000000000E+00  0.12525980253E-10  0.17130000000E+03  0.17130000000E+03 0.  1.
       11    1    1    2    0    0 -0.22937177576E-03  0.16992300890E-02  0.49068953196E-01  0.49101561930E-01  0.51109989000E-03 0. -1.
     -623    1    1    2    0    0  0.77693529873E-03 -0.39783576120E-03  0.51054351175E-04  0.17130000000E+03  0.17130000000E+03 0.  1.
      622    1    1    2    0    0 -0.54756352297E-03 -0.13013943278E-02  0.39508799598E+01  0.39508984358E+01  0.12000000000E-01 0. -1.
</event>
<event>
 5   0  0.3564000E+09  0.9118800E+02  0.7818608E-02  0.1180000E+00
       11   -1    0    0    0    0  0.00000000000E+00  0.00000000000E+00  0.39999999673E+01  0.40000000000E+01  0.51109989000E-03 0.  1.
     -623   -1    0    0    0    0  0.00000000000E+00  0.00000000000E+00  0.12525980253E-10  0.17130000000E+03  0.17130000000E+03 0. -1.
       11    1    1    2    0    0  0.15524348003E-03  0.82502988694E-03  0.26536783616E+00  0.26536965626E+00  0.51109989000E-03 0.  1.
     -623    1    1    2    0    0 -0.65105079324E-04 -0.46462363321E-04  0.21148793180E-04  0.17130000000E+03  0.17130000000E+03 0. -1.
      622    1    1    2    0    0 -0.90138400704E-04 -0.77856752362E-03  0.37346109824E+01  0.37346303437E+01  0.12000000000E-01 0.  1.
</event>
<event>
 5   0  0.3564000E+09  0.9118800E+02  0.7818608E-02  0.1180000E+00
       11   -1    0    0    0    0  0.00000000000E+00  0.00000000000E+00  0.39999999673E+01  0.40000000000E+01  0.51109989000E-03 0.  1.
     -623   -1    0    0    0    0  0.00000000000E+00  0.00000000000E+00  0.12525980253E-10  0.17130000000E+03  0.17130000000E+03 0. -1.
       11    1    1    2    0    0 -0.13025337868E-03  0.17291950094E-03  0.75547666721E-01  0.75549705739E-01  0.51109989000E-03 0.  1.
     -623    1    1    2    0    0 -0.28647512886E-04 -0.37940514428E-03  0.20362011805E-04  0.17130000000E+03  0.17130000000E+03 0. -1.
      622    1    1    2    0    0  0.15890089152E-03  0.20648564269E-03  0.39244319318E+01  0.39244502870E+01  0.12000000000E-01 0.  1.
</event>
<event>
 5   0  0.3564000E+09  0.9118800E+02  0.7818608E-02  0.1180000E+00
       11   -1    0    0    0    0  0.00000000000E+00  0.00000000000E+00  0.39999999673E+01  0.40000000000E+01  0.51109989000E-03 0.  1.
     -623   -1    0    0    0    0  0.00000000000E+00  0.00000000000E+00  0.12525980253E-10  0.17130000000E+03  0.17130000000E+03 0. -1.
       11    1    1    2    0    0  0.60973340357E-03 -0.55331487043E-02  0.46919189691E-01  0.47251022119E-01  0.51109989000E-03 0.  1.
     -623    1    1    2    0    0 -0.35767139362E-02  0.89876113185E-02  0.35291151807E-03  0.17130000027E+03  0.17130000000E+03 0. -1.
      622    1    1    2    0    0  0.29669805326E-02 -0.34544626142E-02  0.39527278662E+01  0.39527487044E+01  0.12000000000E-01 0.  1.
</event>
<event>
 5   0  0.3564000E+09  0.9118800E+02  0.7818608E-02  0.1180000E+00
       11   -1    0    0    0    0  0.00000000000E+00  0.00000000000E+00  0.39999999673E+01  0.40000000000E+01  0.51109989000E-03 0.  1.
     -623   -1    0    0    0    0  0.00000000000E+00  0.00000000000E+00  0.12525980253E-10  0.17130000000E+03  0.17130000000E+03 0. -1.
       11    1    1    2    0    0 -0.48218699204E-03 -0.53944599636E-04  0.74607767161E-02  0.74939860302E-02  0.51109989000E-03 0. -1.
     -623    1    1    2    0    0 -0.99601423601E-03 -0.23123015510E-03  0.51497393846E-04  0.17130000000E+03  0.17130000000E+03 0. -1.
      622    1    1    2    0    0  0.14782012280E-02  0.28517475473E-03  0.39924876931E+01  0.39925060108E+01  0.12000000000E-01 0.  1.
</event>
<event>
 5   0  0.3564000E+09  0.9118800E+02  0.7818608E-02  0.1180000E+00
       11   -1    0    0    0    0  0.00000000000E+00  0.00000000000E+00  0.39999999673E+01  0.40000000000E+01  0.51109989000E-03 0. -1.
     -623   -1    0    0    0    0  0.00000000000E+00  0.00000000000E+00  0.12525980253E-10  0.17130000000E+03  0.17130000000E+03 0. -1.
       11    1    1    2    0    0 -0.20052102236E-01  0.88068881071E-02  0.40671760395E+00  0.40730715519E+00  0.51109989000E-03 0. -1.
     -623    1    1    2    0    0  0.11221654846E-02 -0.60476816116E-03  0.66879994144E-03  0.17130000001E+03  0.17130000000E+03 0. -1.
      622    1    1    2    0    0  0.18929936752E-01 -0.82021199459E-02  0.35926135640E+01  0.35926928393E+01  0.12000000000E-01 0. -1.
</event>
<event>
 5   0  0.3564000E+09  0.9118800E+02  0.7818608E-02  0.1180000E+00
       11   -1    0    0    0    0  0.00000000000E+00  0.00000000000E+00  0.39999999673E+01  0.40000000000E+01  0.51109989000E-03 0.  1.
     -623   -1    0    0    0    0  0.00000000000E+00  0.00000000000E+00  0.12525980253E-10  0.17130000000E+03  0.17130000000E+03 0.  1.
       11    1    1    2    0    0  0.13303272967E-02 -0.25069346651E-02  0.16695703642E+00  0.16698193832E+00  0.51109989000E-03 0.  1.
     -623    1    1    2    0    0  0.62236438883E-03  0.41303191794E-02  0.44545548881E-04  0.17130000005E+03  0.17130000000E+03 0.  1.
      622    1    1    2    0    0 -0.19526916855E-02 -0.16233845144E-02  0.38329983854E+01  0.38330180108E+01  0.12000000000E-01 0.  1.
</event>
<event>
 5   0  0.3564000E+09  0.9118800E+02  0.7818608E-02  0.1180000E+00
       11   -1    0    0    0    0  0.00000000000E+00  0.00000000000E+00  0.39999999673E+01  0.40000000000E+01  0.51109989000E-03 0. -1.
     -623   -1    0    0    0    0  0.00000000000E+00  0.00000000000E+00  0.12525980253E-10  0.17130000000E+03  0.17130000000E+03 0. -1.
       11    1    1    2    0    0 -0.27082275434E-02 -0.67399075027E-02  0.11161996225E+00  0.11185722168E+00  0.51109989000E-03 0. -1.
     -623    1    1    2    0    0 -0.84872546995E-02  0.17813010124E-03  0.27761045062E-03  0.17130000021E+03  0.17130000000E+03 0. -1.
      622    1    1    2    0    0  0.11195482243E-01  0.65617774014E-02  0.38881023947E+01  0.38881425677E+01  0.12000000000E-01 0. -1.
</event>
<event>
 5   0  0.3564000E+09  0.9118800E+02  0.7818608E-02  0.1180000E+00
       11   -1    0    0    0    0  0.00000000000E+00  0.00000000000E+00  0.39999999673E+01  0.40000000000E+01  0.51109989000E-03 0.  1.
     -623   -1    0    0    0    0  0.00000000000E+00  0.00000000000E+00  0.12525980253E-10  0.17130000000E+03  0.17130000000E+03 0.  1.
       11    1    1    2    0    0  0.29308023678E-03  0.28430178407E-04  0.73258643572E-02  0.73495725031E-02  0.51109989000E-03 0.  1.
     -623    1    1    2    0    0 -0.52248211960E-04  0.11599905099E-03  0.41718608359E-04  0.17130000000E+03  0.17130000000E+03 0.  1.
      622    1    1    2    0    0 -0.24083202476E-03 -0.14442922953E-03  0.39926323893E+01  0.39926504323E+01  0.12000000000E-01 0.  1.
</event>
<event>
 5   0  0.3564000E+09  0.9118800E+02  0.7818608E-02  0.1180000E+00
       11   -1    0    0    0    0  0.00000000000E+00  0.00000000000E+00  0.39999999673E+01  0.40000000000E+01  0.51109989000E-03 0. -1.
     -623   -1    0    0    0    0  0.00000000000E+00  0.00000000000E+00  0.12525980253E-10  0.17130000000E+03  0.17130000000E+03 0. -1.
       11    1    1    2    0    0 -0.11414288750E-02 -0.79392165849E-03  0.23770451222E+00  0.23770912798E+00  0.51109989000E-03 0. -1.
     -623    1    1    2    0    0 -0.14758006138E-03  0.20960355196E-03  0.23986828642E-04  0.17130000000E+03  0.17130000000E+03 0. -1.
      622    1    1    2    0    0  0.12890089366E-02  0.58431810623E-03  0.37622714738E+01  0.37622908774E+01  0.12000000000E-01 0. -1.
</event>
<event>
 5   0  0.3564000E+09  0.9118800E+02  0.7818608E-02  0.1180000E+00
       11   -1    0    0    0    0  0.00000000000E+00  0.00000000000E+00  0.39999999673E+01  0.40000000000E+01  0.51109989000E-03 0. -1.
     -623   -1    0    0    0    0  0.00000000000E+00  0.00000000000E+00  0.12525980253E-10  0.17130000000E+03  0.17130000000E+03 0. -1.
       11    1    1    2    0    0  0.41490843154E-03 -0.61087811429E-03  0.18795936968E-01  0.18817380017E-01  0.51109989000E-03 0.  1.
     -623    1    1    2    0    0 -0.46552138220E-03  0.19241087473E-03  0.39518587525E-04  0.17130000000E+03  0.17130000000E+03 0. -1.
      622    1    1    2    0    0  0.50612951047E-04  0.41846723940E-03  0.39811645152E+01  0.39811826226E+01  0.12000000000E-01 0. -1.
</event>
<event>
 5   0  0.3564000E+09  0.9118800E+02  0.7818608E-02  0.1180000E+00
       11   -1    0    0    0    0  0.00000000000E+00  0.00000000000E+00  0.39999999673E+01  0.40000000000E+01  0.51109989000E-03 0. -1.
     -623   -1    0    0    0    0  0.00000000000E+00  0.00000000000E+00  0.12525980253E-10  0.17130000000E+03  0.17130000000E+03 0.  1.
       11    1    1    2    0    0 -0.64635125567E-03 -0.40725588657E-03  0.28074312742E+00  0.28074463208E+00  0.51109989000E-03 0. -1.
     -623    1    1    2    0    0  0.82764016487E-03  0.44455997607E-03  0.20837965587E-04  0.17130000000E+03  0.17130000000E+03 0.  1.
      622    1    1    2    0    0 -0.18128890920E-03 -0.37304089493E-04  0.37192360020E+01  0.37192553653E+01  0.12000000000E-01 0. -1.
</event>
<event>
 5   0  0.3564000E+09  0.9118800E+02  0.7818608E-02  0.1180000E+00
       11   -1    0    0    0    0  0.00000000000E+00  0.00000000000E+00  0.39999999673E+01  0.40000000000E+01  0.51109989000E-03 0.  1.
     -623   -1    0    0    0    0  0.00000000000E+00  0.00000000000E+00  0.12525980253E-10  0.17130000000E+03  0.17130000000E+03 0. -1.
       11    1    1    2    0    0  0.14208022881E-02  0.22525788881E-03  0.19624640788E-01  0.19683931757E-01  0.51109989000E-03 0.  1.
     -623    1    1    2    0    0  0.60227232631E-03 -0.29781864589E-02  0.78840504524E-04  0.17130000003E+03  0.17130000000E+03 0. -1.
      622    1    1    2    0    0 -0.20230746140E-02  0.27529285681E-02  0.39802964835E+01  0.39803160387E+01  0.12000000000E-01 0.  1.
</event>
<event>
 5   0  0.3564000E+09  0.9118800E+02  0.7818608E-02  0.1180000E+00
       11   -1    0    0    0    0  0.00000000000E+00  0.00000000000E+00  0.39999999673E+01  0.40000000000E+01  0.51109989000E-03 0.  1.
     -623   -1    0    0    0    0  0.00000000000E+00  0.00000000000E+00  0.12525980253E-10  0.17130000000E+03  0.17130000000E+03 0. -1.
       11    1    1    2    0    0 -0.49276483237E-03 -0.16605310749E-03  0.30731903525E-01  0.30740551527E-01  0.51109989000E-03 0.  1.
     -623    1    1    2    0    0 -0.41029462003E-03  0.56499008987E-03  0.26879009854E-04  0.17130000000E+03  0.17130000000E+03 0. -1.
      622    1    1    2    0    0  0.90305945232E-03 -0.39893698227E-03  0.39692411840E+01  0.39692594462E+01  0.12000000000E-01 0.  1.
</event>
<event>
 5   0  0.3564000E+09  0.9118800E+02  0.7818608E-02  0.1180000E+00
       11   -1    0    0    0    0  0.00000000000E+00  0.00000000000E+00  0.39999999673E+01  0.40000000000E+01  0.51109989000E-03 0. -1.
     -623   -1    0    0    0    0  0.00000000000E+00  0.00000000000E+00  0.12525980253E-10  0.17130000000E+03  0.17130000000E+03 0. -1.
       11    1    1    2    0    0 -0.17439636925E-02 -0.13079388021E-02  0.26662190285E-01  0.26756040906E-01  0.51109989000E-03 0. -1.
     -623    1    1    2    0    0 -0.50604193995E-04 -0.92435471826E-04  0.11259135965E-03  0.17130000000E+03  0.17130000000E+03 0. -1.
      622    1    1    2    0    0  0.17945678865E-02  0.14003742739E-02  0.39732251857E+01  0.39732439590E+01  0.12000000000E-01 0. -1.
</event>
<event>
 5   0  0.3564000E+09  0.9118800E+02  0.7818608E-02  0.1180000E+00
       11   -1    0    0    0    0  0.00000000000E+00  0.00000000000E+00  0.39999999673E+01  0.40000000000E+01  0.51109989000E-03 0.  1.
     -623   -1    0    0    0    0  0.00000000000E+00  0.00000000000E+00  0.12525980253E-10  0.17130000000E+03  0.17130000000E+03 0. -1.
       11    1    1    2    0    0 -0.48540310534E-03  0.48148812322E-03  0.43798896244E-01  0.43807213795E-01  0.51109989000E-03 0.  1.
     -623    1    1    2    0    0  0.74288053762E-04  0.14775170054E-03  0.26555751943E-04  0.17130000000E+03  0.17130000000E+03 0. -1.
      622    1    1    2    0    0  0.41111505157E-03 -0.62923982376E-03  0.39561745154E+01  0.39561927861E+01  0.12000000000E-01 0.  1.
</event>
<event>
 5   0  0.3564000E+09  0.9118800E+02  0.7818608E-02  0.1180000E+00
       11   -1    0    0    0    0  0.00000000000E+00  0.00000000000E+00  0.39999999673E+01  0.40000000000E+01  0.51109989000E-03 0. -1.
     -623   -1    0    0    0    0  0.00000000000E+00  0.00000000000E+00  0.12525980253E-10  0.17130000000E+03  0.17130000000E+03 0.  1.
       11    1    1    2    0    0  0.61583680740E-02  0.43944977361E-02  0.28221596169E+00  0.28231781269E+00  0.51109989000E-03 0. -1.
     -623    1    1    2    0    0  0.15870552341E-03 -0.72194971825E-04  0.12906510511E-03  0.17130000000E+03  0.17130000000E+03 0.  1.
      622    1    1    2    0    0 -0.63170735974E-02 -0.43223027643E-02  0.37176549406E+01  0.37176821872E+01  0.12000000000E-01 0. -1.
</event>
<event>
 5   0  0.3564000E+09  0.9118800E+02  0.7818608E-02  0.1180000E+00
       11   -1    0    0    0    0  0.00000000000E+00  0.00000000000E+00  0.39999999673E+01  0.40000000000E+01  0.51109989000E-03 0.  1.
     -623   -1    0    0    0    0  0.00000000000E+00  0.00000000000E+00  0.12525980253E-10  0.17130000000E+03  0.17130000000E+03 0.  1.
       11    1    1    2    0    0  0.21634352107E-03 -0.57596347144E-03  0.76088846490E-02  0.76508095741E-02  0.51109989000E-03 0. -1.
     -623    1    1    2    0    0  0.10953291672E-04 -0.12554264515E-03  0.59994979585E-04  0.17130000000E+03  0.17130000000E+03 0.  1.
      622    1    1    2    0    0 -0.22729681274E-03  0.70150611659E-03  0.39923310877E+01  0.39923491903E+01  0.12000000000E-01 0.  1.
</event>
<event>
 5   0  0.3564000E+09  0.9118800E+02  0.7818608E-02  0.1180000E+00
       11   -1    0    0    0    0  0.00000000000E+00  0.00000000000E+00  0.39999999673E+01  0.40000000000E+01  0.51109989000E-03 0. -1.
     -623   -1    0    0    0    0  0.00000000000E+00  0.00000000000E+00  0.12525980253E-10  0.17130000000E+03  0.17130000000E+03 0.  1.
       11    1    1    2    0    0 -0.84453370124E-03  0.29051934306E-02  0.72140576493E+00  0.72141229008E+00  0.51109989000E-03 0. -1.
     -623    1    1    2    0    0  0.26448814015E-03  0.39098192328E-04  0.29826832999E-04  0.17130000000E+03  0.17130000000E+03 0.  1.
      622    1    1    2    0    0  0.58004556109E-03 -0.29442916229E-02  0.32785643756E+01  0.32785877097E+01  0.12000000000E-01 0. -1.
</event>
<event>
 5   0  0.3564000E+09  0.9118800E+02  0.7818608E-02  0.1180000E+00
       11   -1    0    0    0    0  0.00000000000E+00  0.00000000000E+00  0.39999999673E+01  0.40000000000E+01  0.51109989000E-03 0. -1.
     -623   -1    0    0    0    0  0.00000000000E+00  0.00000000000E+00  0.12525980253E-10  0.17130000000E+03  0.17130000000E+03 0. -1.
       11    1    1    2    0    0  0.61294964746E-03 -0.19188736375E-02  0.18041300180E+00  0.18042497118E+00  0.51109989000E-03 0. -1.
     -623    1    1    2    0    0  0.16797561869E-03  0.12781027697E-02  0.30925483034E-04  0.17130000000E+03  0.17130000000E+03 0. -1.
      622    1    1    2    0    0 -0.78092526601E-03  0.64077086893E-03  0.38195560368E+01  0.38195750207E+01  0.12000000000E-01 0. -1.
</event>
<event>
 5   0  0.3564000E+09  0.9118800E+02  0.7818608E-02  0.1180000E+00
       11   -1    0    0    0    0  0.00000000000E+00  0.00000000000E+00  0.39999999673E+01  0.40000000000E+01  0.51109989000E-03 0. -1.
     -623   -1    0    0    0    0  0.00000000000E+00  0.00000000000E+00  0.12525980253E-10  0.17130000000E+03  0.17130000000E+03 0. -1.
       11    1    1    2    0    0  0.73190270121E-03 -0.55822683351E-02  0.96505024460E+00  0.96506680247E+00  0.51109989000E-03 0. -1.
     -623    1    1    2    0    0 -0.16845734928E-02  0.30078756826E-03  0.45002682588E-04  0.17130000001E+03  0.17130000000E+03 0. -1.
      622    1    1    2    0    0  0.95267079160E-03  0.52814807668E-02  0.30349047201E+01  0.30349331890E+01  0.12000000000E-01 0. -1.
</event>
<event>
 5   0  0.3564000E+09  0.9118800E+02  0.7818608E-02  0.1180000E+00
       11   -1    0    0    0    0  0.00000000000E+00  0.00000000000E+00  0.39999999673E+01  0.40000000000E+01  0.51109989000E-03 0.  1.
     -623   -1    0    0    0    0  0.00000000000E+00  0.00000000000E+00  0.12525980253E-10  0.17130000000E+03  0.17130000000E+03 0. -1.
       11    1    1    2    0    0  0.40459271270E-02  0.88247632578E-03  0.21304508121E+00  0.21308593605E+00  0.51109989000E-03 0.  1.
     -623    1    1    2    0    0 -0.42977261086E-03  0.27937981710E-03  0.61740657439E-04  0.17130000000E+03  0.17130000000E+03 0. -1.
      622    1    1    2    0    0 -0.36161545161E-02 -0.11618561429E-02  0.37868931460E+01  0.37869140637E+01  0.12000000000E-01 0.  1.
</event>
<event>
 5   0  0.3564000E+09  0.9118800E+02  0.7818608E-02  0.1180000E+00
       11   -1    0    0    0    0  0.00000000000E+00  0.00000000000E+00  0.39999999673E+01  0.40000000000E+01  0.51109989000E-03 0. -1.
     -623   -1    0    0    0    0  0.00000000000E+00  0.00000000000E+00  0.12525980253E-10  0.17130000000E+03  0.17130000000E+03 0.  1.
       11    1    1    2    0    0 -0.19150275129E-02 -0.35049822006E-02  0.37876333682E+00  0.37878473936E+00  0.51109989000E-03 0. -1.
     -623    1    1    2    0    0  0.64357655023E-02  0.11984428050E-01  0.54542608068E-04  0.17130000054E+03  0.17130000000E+03 0.  1.
      622    1    1    2    0    0 -0.45207380081E-02 -0.84794458847E-02  0.36211820996E+01  0.36212147322E+01  0.12000000000E-01 0. -1.
</event>
<event>
 5   0  0.3564000E+09  0.9118800E+02  0.7818608E-02  0.1180000E+00
       11   -1    0    0    0    0  0.00000000000E+00  0.00000000000E+00  0.39999999673E+01  0.40000000000E+01  0.51109989000E-03 0.  1.
     -623   -1    0    0    0    0  0.00000000000E+00  0.00000000000E+00  0.12525980253E-10  0.17130000000E+03  0.17130000000E+03 0. -1.
       11    1    1    2    0    0 -0.38617607290E-03 -0.43301125782E-02  0.86919744520E-01  0.87029892662E-01  0.51109989000E-03 0.  1.
     -623    1    1    2    0    0 -0.19471525866E-02  0.20324429145E-02  0.12990934778E-03  0.17130000002E+03  0.17130000000E+03 0. -1.
      622    1    1    2    0    0  0.23333286595E-02  0.22976696637E-02  0.39129503135E+01  0.39129700842E+01  0.12000000000E-01 0.  1.
</event>
<event>
 5   0  0.3564000E+09  0.9118800E+02  0.7818608E-02  0.1180000E+00
       11   -1    0    0    0    0  0.00000000000E+00  0.00000000000E+00  0.39999999673E+01  0.40000000000E+01  0.51109989000E-03 0. -1.
     -623   -1    0    0    0    0  0.00000000000E+00  0.00000000000E+00  0.12525980253E-10  0.17130000000E+03  0.17130000000E+03 0. -1.
       11    1    1    2    0    0  0.49436451938E-03  0.63816126213E-04  0.45017590607E-01  0.45023251281E-01  0.51109989000E-03 0. -1.
     -623    1    1    2    0    0  0.17592127170E-04  0.50888869950E-04  0.23867796212E-04  0.17130000000E+03  0.17130000000E+03 0. -1.
      622    1    1    2    0    0 -0.51195664653E-03 -0.11470499610E-03  0.39549585044E+01  0.39549767442E+01  0.12000000000E-01 0. -1.
</event>
<event>
 5   0  0.3564000E+09  0.9118800E+02  0.7818608E-02  0.1180000E+00
       11   -1    0    0    0    0  0.00000000000E+00  0.00000000000E+00  0.39999999673E+01  0.40000000000E+01  0.51109989000E-03 0.  1.
     -623   -1    0    0    0    0  0.00000000000E+00  0.00000000000E+00  0.12525980253E-10  0.17130000000E+03  0.17130000000E+03 0.  1.
       11    1    1    2    0    0  0.17852821389E-02  0.21497447156E-03  0.30525318849E+00  0.30525891265E+00  0.51109989000E-03 0.  1.
     -623    1    1    2    0    0 -0.16392014369E-02 -0.59139101804E-03  0.25209657143E-04  0.17130000001E+03  0.17130000000E+03 0.  1.
      622    1    1    2    0    0 -0.14608069794E-03  0.37641654796E-03  0.36947215792E+01  0.36947410885E+01  0.12000000000E-01 0.  1.
</event>
<event>
 5   0  0.3564000E+09  0.9118800E+02  0.7818608E-02  0.1180000E+00
       11   -1    0    0    0    0  0.00000000000E+00  0.00000000000E+00  0.39999999673E+01  0.40000000000E+01  0.51109989000E-03 0.  1.
     -623   -1    0    0    0    0  0.00000000000E+00  0.00000000000E+00  0.12525980253E-10  0.17130000000E+03  0.17130000000E+03 0.  1.
       11    1    1    2    0    0 -0.25021239449E-02 -0.12241949124E-02  0.49304339100E+00  0.49305152460E+00  0.51109989000E-03 0.  1.
     -623    1    1    2    0    0 -0.38826219459E-04  0.42647088770E-04  0.29751267875E-04  0.17130000000E+03  0.17130000000E+03 0.  1.
      622    1    1    2    0    0  0.25409501644E-02  0.11815478236E-02  0.35069268354E+01  0.35069484857E+01  0.12000000000E-01 0.  1.
</event>
<event>
 5   0  0.3564000E+09  0.9118800E+02  0.7818608E-02  0.1180000E+00
       11   -1    0    0    0    0  0.00000000000E+00  0.00000000000E+00  0.39999999673E+01  0.40000000000E+01  0.51109989000E-03 0.  1.
     -623   -1    0    0    0    0  0.00000000000E+00  0.00000000000E+00  0.12525980253E-10  0.17130000000E+03  0.17130000000E+03 0. -1.
       11    1    1    2    0    0 -0.45511295734E-03  0.72480774043E-03  0.27799618402E-02  0.29532837647E-02  0.51109989000E-03 0.  1.
     -623    1    1    2    0    0  0.16664172461E-02 -0.75963397526E-03  0.19149621673E-03  0.17130000001E+03  0.17130000000E+03 0. -1.
      622    1    1    2    0    0 -0.12113042896E-02  0.34826235200E-04  0.39970285113E+01  0.39970467083E+01  0.12000000000E-01 0.  1.
</event>
<event>
 5   0  0.3564000E+09  0.9118800E+02  0.7818608E-02  0.1180000E+00
       11   -1    0    0    0    0  0.00000000000E+00  0.00000000000E+00  0.39999999673E+01  0.40000000000E+01  0.51109989000E-03 0.  1.
     -623   -1    0    0    0    0  0.00000000000E+00  0.00000000000E+00  0.12525980253E-10  0.17130000000E+03  0.17130000000E+03 0. -1.
       11    1    1    2    0    0 -0.18067170103E-03 -0.81542422924E-04  0.23265473771E-01  0.23271931205E-01  0.51109989000E-03 0.  1.
     -623    1    1    2    0    0 -0.75828250026E-03 -0.16352280161E-03  0.24650331451E-04  0.17130000000E+03  0.17130000000E+03 0. -1.
      622    1    1    2    0    0  0.93895420130E-03  0.24506522453E-03  0.39767098433E+01  0.39767280670E+01  0.12000000000E-01 0.  1.
</event>
<event>
 5   0  0.3564000E+09  0.9118800E+02  0.7818608E-02  0.1180000E+00
       11   -1    0    0    0    0  0.00000000000E+00  0.00000000000E+00  0.39999999673E+01  0.40000000000E+01  0.51109989000E-03 0.  1.
     -623   -1    0    0    0    0  0.00000000000E+00  0.00000000000E+00  0.12525980253E-10  0.17130000000E+03  0.17130000000E+03 0.  1.
       11    1    1    2    0    0  0.18851542925E-01 -0.12436853790E-01  0.12283573910E+00  0.12489570059E+00  0.51109989000E-03 0.  1.
     -623    1    1    2    0    0 -0.20134750475E-01  0.14995056680E-01  0.20814182112E-02  0.17130000185E+03  0.17130000000E+03 0.  1.
      622    1    1    2    0    0  0.12832075501E-02 -0.25582028895E-02  0.38750828100E+01  0.38751024471E+01  0.12000000000E-01 0.  1.
</event>
<event>
 5   0  0.3564000E+09  0.9118800E+02  0.7818608E-02  0.1180000E+00
       11   -1    0    0    0    0  0.00000000000E+00  0.00000000000E+00  0.39999999673E+01  0.40000000000E+01  0.51109989000E-03 0. -1.
     -623   -1    0    0    0    0  0.00000000000E+00  0.00000000000E+00  0.12525980253E-10  0.17130000000E+03  0.17130000000E+03 0.  1.
       11    1    1    2    0    0  0.23382536890E-03  0.12645896613E-03  0.43371886440E-01  0.43375712331E-01  0.51109989000E-03 0. -1.
     -623    1    1    2    0    0 -0.53593342931E-03 -0.50673828839E-03  0.22022021054E-04  0.17130000000E+03  0.17130000000E+03 0.  1.
      622    1    1    2    0    0  0.30210806041E-03  0.38027932226E-03  0.39566060589E+01  0.39566242861E+01  0.12000000000E-01 0. -1.
</event>
<event>
 5   0  0.3564000E+09  0.9118800E+02  0.7818608E-02  0.1180000E+00
       11   -1    0    0    0    0  0.00000000000E+00  0.00000000000E+00  0.39999999673E+01  0.40000000000E+01  0.51109989000E-03 0.  1.
     -623   -1    0    0    0    0  0.00000000000E+00  0.00000000000E+00  0.12525980253E-10  0.17130000000E+03  0.17130000000E+03 0. -1.
       11    1    1    2    0    0 -0.29116701969E-02  0.50068278995E-02  0.46408165454E+00  0.46411807706E+00  0.51109989000E-03 0.  1.
     -623    1    1    2    0    0 -0.12240197958E-03 -0.25206288641E-04  0.61563678871E-04  0.17130000000E+03  0.17130000000E+03 0. -1.
      622    1    1    2    0    0  0.30340721765E-02 -0.49816216108E-02  0.35358567491E+01  0.35358819229E+01  0.12000000000E-01 0.  1.
</event>
<event>
 5   0  0.3564000E+09  0.9118800E+02  0.7818608E-02  0.1180000E+00
       11   -1    0    0    0    0  0.00000000000E+00  0.00000000000E+00  0.39999999673E+01  0.40000000000E+01  0.51109989000E-03 0. -1.
     -623   -1    0    0    0    0  0.00000000000E+00  0.00000000000E+00  0.12525980253E-10  0.17130000000E+03  0.17130000000E+03 0. -1.
       11    1    1    2    0    0 -0.13005076938E-02 -0.91168661138E-02  0.37692132631E+00  0.37703415763E+00  0.51109989000E-03 0. -1.
     -623    1    1    2    0    0  0.15913981206E-02  0.83630731985E-02  0.13297364129E-03  0.17130000021E+03  0.17130000000E+03 0. -1.
      622    1    1    2    0    0 -0.29089042624E-03  0.75379291804E-03  0.36229456661E+01  0.36229656295E+01  0.12000000000E-01 0.  0.
</event>
<event>
 5   0  0.3564000E+09  0.9118800E+02  0.7818608E-02  0.1180000E+00
       11   -1    0    0    0    0  0.00000000000E+00  0.00000000000E+00  0.39999999673E+01  0.40000000000E+01  0.51109989000E-03 0. -1.
     -623   -1    0    0    0    0  0.00000000000E+00  0.00000000000E+00  0.12525980253E-10  0.17130000000E+03  0.17130000000E+03 0.  1.
       11    1    1    2    0    0  0.90733850937E-03 -0.41969676516E-03  0.15101707772E-01  0.15143388302E-01  0.51109989000E-03 0. -1.
     -623    1    1    2    0    0 -0.43954606151E-03  0.10050689288E-02  0.59790311620E-04  0.17130000000E+03  0.17130000000E+03 0.  1.
      622    1    1    2    0    0 -0.46779244808E-03 -0.58537216310E-03  0.39848384673E+01  0.39848566062E+01  0.12000000000E-01 0. -1.
</event>
<event>
 5   0  0.3564000E+09  0.9118800E+02  0.7818608E-02  0.1180000E+00
       11   -1    0    0    0    0  0.00000000000E+00  0.00000000000E+00  0.39999999673E+01  0.40000000000E+01  0.51109989000E-03 0. -1.
     -623   -1    0    0    0    0  0.00000000000E+00  0.00000000000E+00  0.12525980253E-10  0.17130000000E+03  0.17130000000E+03 0.  1.
       11    1    1    2    0    0  0.94892715269E-03 -0.11046636234E-04  0.21923969383E-01  0.21950449685E-01  0.51109989000E-03 0. -1.
     -623    1    1    2    0    0 -0.84739029218E-04 -0.18347630066E-03  0.44645774219E-04  0.17130000000E+03  0.17130000000E+03 0.  1.
      622    1    1    2    0    0 -0.86418812329E-03  0.19452293730E-03  0.39780313611E+01  0.39780495591E+01  0.12000000000E-01 0. -1.
</event>
<event>
 5   0  0.3564000E+09  0.9118800E+02  0.7818608E-02  0.1180000E+00
       11   -1    0    0    0    0  0.00000000000E+00  0.00000000000E+00  0.39999999673E+01  0.40000000000E+01  0.51109989000E-03 0.  1.
     -623   -1    0    0    0    0  0.00000000000E+00  0.00000000000E+00  0.12525980253E-10  0.17130000000E+03  0.17130000000E+03 0. -1.
       11    1    1    2    0    0  0.19583464491E-01  0.14731974134E-01  0.78848297220E+00  0.78886386774E+00  0.51109989000E-03 0.  1.
     -623    1    1    2    0    0  0.63273991068E-03 -0.46738947576E-03  0.49860991361E-03  0.17130000000E+03  0.17130000000E+03 0. -1.
      622    1    1    2    0    0 -0.20216204401E-01 -0.14264584658E-01  0.32110183850E+01  0.32111361295E+01  0.12000000000E-01 0.  1.
</event>
<event>
 5   0  0.3564000E+09  0.9118800E+02  0.7818608E-02  0.1180000E+00
       11   -1    0    0    0    0  0.00000000000E+00  0.00000000000E+00  0.39999999673E+01  0.40000000000E+01  0.51109989000E-03 0.  1.
     -623   -1    0    0    0    0  0.00000000000E+00  0.00000000000E+00  0.12525980253E-10  0.17130000000E+03  0.17130000000E+03 0. -1.
       11    1    1    2    0    0 -0.13551875269E-02  0.15500768252E-02  0.25593481939E-01  0.25681254073E-01  0.51109989000E-03 0.  1.
     -623    1    1    2    0    0  0.14020048364E-03 -0.28742869943E-04  0.10633283575E-03  0.17130000000E+03  0.17130000000E+03 0. -1.
      622    1    1    2    0    0  0.12149870433E-02 -0.15213339553E-02  0.39743001526E+01  0.39743187458E+01  0.12000000000E-01 0.  1.
</event>
<event>
 5   0  0.3564000E+09  0.9118800E+02  0.7818608E-02  0.1180000E+00
       11   -1    0    0    0    0  0.00000000000E+00  0.00000000000E+00  0.39999999673E+01  0.40000000000E+01  0.51109989000E-03 0.  1.
     -623   -1    0    0    0    0  0.00000000000E+00  0.00000000000E+00  0.12525980253E-10  0.17130000000E+03  0.17130000000E+03 0.  1.
       11    1    1    2    0    0  0.53036047227E-02 -0.29612587304E-02  0.24077785189E+00  0.24085500298E+00  0.51109989000E-03 0.  1.
     -623    1    1    2    0    0  0.11629243916E-03 -0.93017535558E-04  0.10141987844E-03  0.17130000000E+03  0.17130000000E+03 0.  1.
      622    1    1    2    0    0 -0.54198971618E-02  0.30542762660E-02  0.37591206942E+01  0.37591449955E+01  0.12000000000E-01 0.  1.
</event>
<event>
 5   0  0.3564000E+09  0.9118800E+02  0.7818608E-02  0.1180000E+00
       11   -1    0    0    0    0  0.00000000000E+00  0.00000000000E+00  0.39999999673E+01  0.40000000000E+01  0.51109989000E-03 0. -1.
     -623   -1    0    0    0    0  0.00000000000E+00  0.00000000000E+00  0.12525980253E-10  0.17130000000E+03  0.17130000000E+03 0. -1.
       11    1    1    2    0    0  0.15501872463E-02  0.27317444334E-03  0.27488168130E+00  0.27488666327E+00  0.51109989000E-03 0. -1.
     -623    1    1    2    0    0 -0.13729968606E-03  0.86763264276E-04  0.24563062785E-04  0.17130000000E+03  0.17130000000E+03 0. -1.
      622    1    1    2    0    0 -0.14128875597E-02 -0.35993770792E-03  0.37250937371E+01  0.37251133508E+01  0.12000000000E-01 0. -1.
</event>
<event>
 5   0  0.3564000E+09  0.9118800E+02  0.7818608E-02  0.1180000E+00
       11   -1    0    0    0    0  0.00000000000E+00  0.00000000000E+00  0.39999999673E+01  0.40000000000E+01  0.51109989000E-03 0. -1.
     -623   -1    0    0    0    0  0.00000000000E+00  0.00000000000E+00  0.12525980253E-10  0.17130000000E+03  0.17130000000E+03 0. -1.
       11    1    1    2    0    0  0.31512454738E-02 -0.70564335684E-03  0.49083689177E+00  0.49084778071E+00  0.51109989000E-03 0. -1.
     -623    1    1    2    0    0  0.14164273537E-05  0.20922154130E-03  0.32825580865E-04  0.17130000000E+03  0.17130000000E+03 0. -1.
      622    1    1    2    0    0 -0.31526619012E-02  0.49642181554E-03  0.35091302500E+01  0.35091522192E+01  0.12000000000E-01 0. -1.
</event>
<event>
 5   0  0.3564000E+09  0.9118800E+02  0.7818608E-02  0.1180000E+00
       11   -1    0    0    0    0  0.00000000000E+00  0.00000000000E+00  0.39999999673E+01  0.40000000000E+01  0.51109989000E-03 0.  1.
     -623   -1    0    0    0    0  0.00000000000E+00  0.00000000000E+00  0.12525980253E-10  0.17130000000E+03  0.17130000000E+03 0. -1.
       11    1    1    2    0    0 -0.38326250439E-02  0.10473709885E-01  0.10852147602E+01  0.10852721892E+01  0.51109989000E-03 0.  1.
     -623    1    1    2    0    0  0.11982867307E-02  0.22329481304E-04  0.10219180251E-03  0.17130000000E+03  0.17130000000E+03 0. -1.
      622    1    1    2    0    0  0.26343383132E-02 -0.10496039366E-01  0.29146830154E+01  0.29147278066E+01  0.12000000000E-01 0.  1.
</event>
<event>
 5   0  0.3564000E+09  0.9118800E+02  0.7818608E-02  0.1180000E+00
       11   -1    0    0    0    0  0.00000000000E+00  0.00000000000E+00  0.39999999673E+01  0.40000000000E+01  0.51109989000E-03 0.  1.
     -623   -1    0    0    0    0  0.00000000000E+00  0.00000000000E+00  0.12525980253E-10  0.17130000000E+03  0.17130000000E+03 0.  1.
       11    1    1    2    0    0  0.15951132261E-02  0.40878519216E-03  0.16596576953E+00  0.16597472509E+00  0.51109989000E-03 0.  1.
     -623    1    1    2    0    0 -0.54492611917E-02 -0.25814444874E-02  0.30361118561E-04  0.17130000011E+03  0.17130000000E+03 0.  1.
      622    1    1    2    0    0  0.38541479750E-02  0.21726592997E-02  0.38340038436E+01  0.38340251757E+01  0.12000000000E-01 0.  1.
</event>
<event>
 5   0  0.3564000E+09  0.9118800E+02  0.7818608E-02  0.1180000E+00
       11   -1    0    0    0    0  0.00000000000E+00  0.00000000000E+00  0.39999999673E+01  0.40000000000E+01  0.51109989000E-03 0.  1.
     -623   -1    0    0    0    0  0.00000000000E+00  0.00000000000E+00  0.12525980253E-10  0.17130000000E+03  0.17130000000E+03 0. -1.
       11    1    1    2    0    0  0.29263594162E-02  0.10086028932E-02  0.49681338645E+00  0.49682329156E+00  0.51109989000E-03 0.  1.
     -623    1    1    2    0    0 -0.10073909447E-02  0.35037260631E-02  0.33895802574E-04  0.17130000004E+03  0.17130000000E+03 0. -1.
      622    1    1    2    0    0 -0.19189684715E-02 -0.45123289563E-02  0.35031526851E+01  0.35031766696E+01  0.12000000000E-01 0. -1.
</event>
<event>
 5   0  0.3564000E+09  0.9118800E+02  0.7818608E-02  0.1180000E+00
       11   -1    0    0    0    0  0.00000000000E+00  0.00000000000E+00  0.39999999673E+01  0.40000000000E+01  0.51109989000E-03 0. -1.
     -623   -1    0    0    0    0  0.00000000000E+00  0.00000000000E+00  0.12525980253E-10  0.17130000000E+03  0.17130000000E+03 0. -1.
       11    1    1    2    0    0 -0.29473372460E-03  0.24876106223E-03  0.64589691127E-02  0.64906281569E-02  0.51109989000E-03 0. -1.
     -623    1    1    2    0    0  0.77973756453E-03 -0.39693837313E-03  0.49690142495E-04  0.17130000000E+03  0.17130000000E+03 0. -1.
      622    1    1    2    0    0 -0.48500383993E-03  0.14817731090E-03  0.39934913081E+01  0.39935093696E+01  0.12000000000E-01 0. -1.
</event>
<event>
 5   0  0.3564000E+09  0.9118800E+02  0.7818608E-02  0.1180000E+00
       11   -1    0    0    0    0  0.00000000000E+00  0.00000000000E+00  0.39999999673E+01  0.40000000000E+01  0.51109989000E-03 0. -1.
     -623   -1    0    0    0    0  0.00000000000E+00  0.00000000000E+00  0.12525980253E-10  0.17130000000E+03  0.17130000000E+03 0.  1.
       11    1    1    2    0    0  0.56572702673E-02 -0.41122302646E-02  0.40081658925E+00  0.40087792978E+00  0.51109989000E-03 0. -1.
     -623    1    1    2    0    0 -0.61387242629E-04 -0.70877213688E-03  0.88893440435E-04  0.17130000000E+03  0.17130000000E+03 0.  1.
      622    1    1    2    0    0 -0.55958830247E-02  0.48210024015E-02  0.35990944847E+01  0.35991220687E+01  0.12000000000E-01 0. -1.
</event>
<event>
 5   0  0.3564000E+09  0.9118800E+02  0.7818608E-02  0.1180000E+00
       11   -1    0    0    0    0  0.00000000000E+00  0.00000000000E+00  0.39999999673E+01  0.40000000000E+01  0.51109989000E-03 0.  1.
     -623   -1    0    0    0    0  0.00000000000E+00  0.00000000000E+00  0.12525980253E-10  0.17130000000E+03  0.17130000000E+03 0.  1.
       11    1    1    2    0    0  0.17950558348E-02 -0.34377735591E-02  0.22062818517E+00  0.22066286009E+00  0.51109989000E-03 0.  1.
     -623    1    1    2    0    0 -0.87366397017E-02  0.58038428679E-02  0.61129979748E-04  0.17130000032E+03  0.17130000000E+03 0.  1.
      622    1    1    2    0    0  0.69415838669E-02 -0.23660693088E-02  0.37793106522E+01  0.37793368188E+01  0.12000000000E-01 0.  1.
</event>
<event>
 5   0  0.3564000E+09  0.9118800E+02  0.7818608E-02  0.1180000E+00
       11   -1    0    0    0    0  0.00000000000E+00  0.00000000000E+00  0.39999999673E+01  0.40000000000E+01  0.51109989000E-03 0.  1.
     -623   -1    0    0    0    0  0.00000000000E+00  0.00000000000E+00  0.12525980253E-10  0.17130000000E+03  0.17130000000E+03 0. -1.
       11    1    1    2    0    0 -0.33127931317E-03 -0.78970688965E-03  0.10525767702E-01  0.10572908387E-01  0.51109989000E-03 0. -1.
     -623    1    1    2    0    0  0.48368893864E-03  0.93190229649E-03  0.65164465915E-04  0.17130000000E+03  0.17130000000E+03 0. -1.
      622    1    1    2    0    0 -0.15240962540E-03 -0.14219540671E-03  0.39894090346E+01  0.39894270878E+01  0.12000000000E-01 0.  1.
</event>
<event>
 5   0  0.3564000E+09  0.9118800E+02  0.7818608E-02  0.1180000E+00
       11   -1    0    0    0    0  0.00000000000E+00  0.00000000000E+00  0.39999999673E+01  0.40000000000E+01  0.51109989000E-03 0. -1.
     -623   -1    0    0    0    0  0.00000000000E+00  0.00000000000E+00  0.12525980253E-10  0.17130000000E+03  0.17130000000E+03 0. -1.
       11    1    1    2    0    0 -0.36553633821E-02  0.44018099470E-03  0.27870320007E+00  0.27872798638E+00  0.51109989000E-03 0. -1.
     -623    1    1    2    0    0 -0.26473296880E-03 -0.27014924553E-03  0.46171037457E-04  0.17130000000E+03  0.17130000000E+03 0. -1.
      622    1    1    2    0    0  0.39200963511E-02 -0.17003174902E-03  0.37212505985E+01  0.37212720155E+01  0.12000000000E-01 0. -1.
</event>
<event>
 5   0  0.3564000E+09  0.9118800E+02  0.7818608E-02  0.1180000E+00
       11   -1    0    0    0    0  0.00000000000E+00  0.00000000000E+00  0.39999999673E+01  0.40000000000E+01  0.51109989000E-03 0. -1.
     -623   -1    0    0    0    0  0.00000000000E+00  0.00000000000E+00  0.12525980253E-10  0.17130000000E+03  0.17130000000E+03 0.  1.
       11    1    1    2    0    0 -0.79804162395E-02 -0.45776898939E-02  0.11013626507E+01  0.11014011948E+01  0.51109989000E-03 0. -1.
     -623    1    1    2    0    0  0.60777191599E-02  0.11654704202E-01  0.73119397520E-04  0.17130000050E+03  0.17130000000E+03 0.  1.
      622    1    1    2    0    0  0.19026970796E-02 -0.70770143080E-02  0.28985641972E+01  0.28985983009E+01  0.12000000000E-01 0. -1.
</event>
<event>
 5   0  0.3564000E+09  0.9118800E+02  0.7818608E-02  0.1180000E+00
       11   -1    0    0    0    0  0.00000000000E+00  0.00000000000E+00  0.39999999673E+01  0.40000000000E+01  0.51109989000E-03 0.  1.
     -623   -1    0    0    0    0  0.00000000000E+00  0.00000000000E+00  0.12525980253E-10  0.17130000000E+03  0.17130000000E+03 0.  1.
       11    1    1    2    0    0  0.72736189206E-03  0.77490461074E-03  0.22797439358E-01  0.22827921376E-01  0.51109989000E-03 0.  1.
     -623    1    1    2    0    0 -0.21445347707E-03  0.14705830375E-03  0.48692874659E-04  0.17130000000E+03  0.17130000000E+03 0.  1.
      622    1    1    2    0    0 -0.51290841499E-03 -0.92196291449E-03  0.39771538351E+01  0.39771720784E+01  0.12000000000E-01 0.  1.
</event>
<event>
 5   0  0.3564000E+09  0.9118800E+02  0.7818608E-02  0.1180000E+00
       11   -1    0    0    0    0  0.00000000000E+00  0.00000000000E+00  0.39999999673E+01  0.40000000000E+01  0.51109989000E-03 0. -1.
     -623   -1    0    0    0    0  0.00000000000E+00  0.00000000000E+00  0.12525980253E-10  0.17130000000E+03  0.17130000000E+03 0.  1.
       11    1    1    2    0    0  0.52823554477E-03  0.88788953178E-03  0.60090057538E-01  0.60101111626E-01  0.51109989000E-03 0. -1.
     -623    1    1    2    0    0 -0.45978661888E-03 -0.38450669750E-03  0.29329873722E-04  0.17130000000E+03  0.17130000000E+03 0.  1.
      622    1    1    2    0    0 -0.68448925098E-04 -0.50338283362E-03  0.39398805868E+01  0.39398988942E+01  0.12000000000E-01 0. -1.
</event>
<event>
 5   0  0.3564000E+09  0.9118800E+02  0.7818608E-02  0.1180000E+00
       11   -1    0    0    0    0  0.00000000000E+00  0.00000000000E+00  0.39999999673E+01  0.40000000000E+01  0.51109989000E-03 0. -1.
     -623   -1    0    0    0    0  0.00000000000E+00  0.00000000000E+00  0.12525980253E-10  0.17130000000E+03  0.17130000000E+03 0.  1.
       11    1    1    2    0    0  0.24660883210E-02  0.23931300627E-02  0.36642787462E+00  0.36644434391E+00  0.51109989000E-03 0. -1.
     -623    1    1    2    0    0  0.30547065718E-04  0.20681922941E-03  0.38040056296E-04  0.17130000000E+03  0.17130000000E+03 0.  1.
      622    1    1    2    0    0 -0.24966353868E-02 -0.25999492926E-02  0.36335340611E+01  0.36335556644E+01  0.12000000000E-01 0. -1.
</event>
<event>
 5   0  0.3564000E+09  0.9118800E+02  0.7818608E-02  0.1180000E+00
       11   -1    0    0    0    0  0.00000000000E+00  0.00000000000E+00  0.39999999673E+01  0.40000000000E+01  0.51109989000E-03 0. -1.
     -623   -1    0    0    0    0  0.00000000000E+00  0.00000000000E+00  0.12525980253E-10  0.17130000000E+03  0.17130000000E+03 0. -1.
       11    1    1    2    0    0 -0.35266201435E-02 -0.35695242673E-02  0.98418638978E+00  0.98419931396E+00  0.51109989000E-03 0. -1.
     -623    1    1    2    0    0  0.25780966806E-03  0.87439950116E-03  0.39744146019E-04  0.17130000000E+03  0.17130000000E+03 0. -1.
      622    1    1    2    0    0  0.32688104755E-02  0.26951247662E-02  0.30157738334E+01  0.30158006836E+01  0.12000000000E-01 0. -1.
</event>
<event>
 5   0  0.3564000E+09  0.9118800E+02  0.7818608E-02  0.1180000E+00
       11   -1    0    0    0    0  0.00000000000E+00  0.00000000000E+00  0.39999999673E+01  0.40000000000E+01  0.51109989000E-03 0.  1.
     -623   -1    0    0    0    0  0.00000000000E+00  0.00000000000E+00  0.12525980253E-10  0.17130000000E+03  0.17130000000E+03 0.  1.
       11    1    1    2    0    0 -0.25139104021E-02 -0.18025232381E-02  0.59386021423E+00  0.59386849058E+00  0.51109989000E-03 0.  1.
     -623    1    1    2    0    0 -0.36098822518E-03  0.18855233840E-03  0.30978266391E-04  0.17130000000E+03  0.17130000000E+03 0.  1.
      622    1    1    2    0    0  0.28748986278E-02  0.16139708994E-02  0.34061087809E+01  0.34061315149E+01  0.12000000000E-01 0.  1.
</event>
<event>
 5   0  0.3564000E+09  0.9118800E+02  0.7818608E-02  0.1180000E+00
       11   -1    0    0    0    0  0.00000000000E+00  0.00000000000E+00  0.39999999673E+01  0.40000000000E+01  0.51109989000E-03 0.  1.
     -623   -1    0    0    0    0  0.00000000000E+00  0.00000000000E+00  0.12525980253E-10  0.17130000000E+03  0.17130000000E+03 0.  1.
       11    1    1    2    0    0  0.23285610978E-04 -0.25682304521E-03  0.96914894243E-03  0.11255989812E-02  0.51109989000E-03 0. -1.
     -623    1    1    2    0    0 -0.66980669598E-03 -0.35948319861E-03  0.17452403773E-03  0.17130000000E+03  0.17130000000E+03 0.  1.
      622    1    1    2    0    0  0.64652108524E-03  0.61630624395E-03  0.39988562958E+01  0.39988744006E+01  0.12000000000E-01 0.  1.
</event>
<event>
 5   0  0.3564000E+09  0.9118800E+02  0.7818608E-02  0.1180000E+00
       11   -1    0    0    0    0  0.00000000000E+00  0.00000000000E+00  0.39999999673E+01  0.40000000000E+01  0.51109989000E-03 0. -1.
     -623   -1    0    0    0    0  0.00000000000E+00  0.00000000000E+00  0.12525980253E-10  0.17130000000E+03  0.17130000000E+03 0. -1.
       11    1    1    2    0    0 -0.21844748042E-02  0.18054902804E-02  0.53013425661E+00  0.53014207811E+00  0.51109989000E-03 0. -1.
     -623    1    1    2    0    0  0.86690855100E-04  0.88692570259E-04  0.29690248751E-04  0.17130000000E+03  0.17130000000E+03 0. -1.
      622    1    1    2    0    0  0.20977839489E-02 -0.18941828508E-02  0.34698360288E+01  0.34698579302E+01  0.12000000000E-01 0. -1.
</event>
<event>
 5   0  0.3564000E+09  0.9118800E+02  0.7818608E-02  0.1180000E+00
       11   -1    0    0    0    0  0.00000000000E+00  0.00000000000E+00  0.39999999673E+01  0.40000000000E+01  0.51109989000E-03 0.  1.
     -623   -1    0    0    0    0  0.00000000000E+00  0.00000000000E+00  0.12525980253E-10  0.17130000000E+03  0.17130000000E+03 0. -1.
       11    1    1    2    0    0 -0.17696860193E-02  0.13961267249E-02  0.16916829585E+00  0.16918408465E+00  0.51109989000E-03 0.  1.
     -623    1    1    2    0    0  0.70480049034E-03  0.25436074194E-03  0.35056366061E-04  0.17130000000E+03  0.17130000000E+03 0. -1.
      622    1    1    2    0    0  0.10648855289E-02 -0.16504874668E-02  0.38307966151E+01  0.38308159137E+01  0.12000000000E-01 0.  1.
</event>
<event>
 5   0  0.3564000E+09  0.9118800E+02  0.7818608E-02  0.1180000E+00
       11   -1    0    0    0    0  0.00000000000E+00  0.00000000000E+00  0.39999999673E+01  0.40000000000E+01  0.51109989000E-03 0.  1.
     -623   -1    0    0    0    0  0.00000000000E+00  0.00000000000E+00  0.12525980253E-10  0.17130000000E+03  0.17130000000E+03 0.  1.
       11    1    1    2    0    0  0.13010009196E-02 -0.41479566245E-02  0.24915034730E+00  0.24918879375E+00  0.51109989000E-03 0.  1.
     -623    1    1    2    0    0 -0.24971844672E-04 -0.12293300627E-03  0.60258366969E-04  0.17130000000E+03  0.17130000000E+03 0.  1.
      622    1    1    2    0    0 -0.12760290750E-02  0.42708896308E-02  0.37507893617E+01  0.37508112062E+01  0.12000000000E-01 0.  1.
</event>
<event>
 5   0  0.3564000E+09  0.9118800E+02  0.7818608E-02  0.1180000E+00
       11   -1    0    0    0    0  0.00000000000E+00  0.00000000000E+00  0.39999999673E+01  0.40000000000E+01  0.51109989000E-03 0. -1.
     -623   -1    0    0    0    0  0.00000000000E+00  0.00000000000E+00  0.12525980253E-10  0.17130000000E+03  0.17130000000E+03 0. -1.
       11    1    1    2    0    0  0.23230562251E-01  0.13121659771E-01  0.87614061166E+00  0.87654690097E+00  0.51109989000E-03 0. -1.
     -623    1    1    2    0    0 -0.76585734352E-03 -0.14232869474E-02  0.53201227937E-03  0.17130000001E+03  0.17130000000E+03 0. -1.
      622    1    1    2    0    0 -0.22464704907E-01 -0.11698372824E-01  0.31233273434E+01  0.31234530906E+01  0.12000000000E-01 0. -1.
</event>
<event>
 5   0  0.3564000E+09  0.9118800E+02  0.7818608E-02  0.1180000E+00
       11   -1    0    0    0    0  0.00000000000E+00  0.00000000000E+00  0.39999999673E+01  0.40000000000E+01  0.51109989000E-03 0.  1.
     -623   -1    0    0    0    0  0.00000000000E+00  0.00000000000E+00  0.12525980253E-10  0.17130000000E+03  0.17130000000E+03 0.  1.
       11    1    1    2    0    0 -0.17670138178E-02 -0.34204791366E-02  0.40487144289E+00  0.40489006965E+00  0.51109989000E-03 0.  1.
     -623    1    1    2    0    0  0.28894836758E-03 -0.21428548139E-03  0.40763046201E-04  0.17130000000E+03  0.17130000000E+03 0.  1.
      622    1    1    2    0    0  0.14780654502E-02  0.36347646180E-02  0.35950877614E+01  0.35951099300E+01  0.12000000000E-01 0.  1.
</event>
<event>
 5   0  0.3564000E+09  0.9118800E+02  0.7818608E-02  0.1180000E+00
       11   -1    0    0    0    0  0.00000000000E+00  0.00000000000E+00  0.39999999673E+01  0.40000000000E+01  0.51109989000E-03 0. -1.
     -623   -1    0    0    0    0  0.00000000000E+00  0.00000000000E+00  0.12525980253E-10  0.17130000000E+03  0.17130000000E+03 0. -1.
       11    1    1    2    0    0 -0.39258149313E-03 -0.50885516585E-03  0.19041616237E+00  0.19041793290E+00  0.51109989000E-03 0. -1.
     -623    1    1    2    0    0 -0.31385016407E-05  0.30419326620E-03  0.20663965998E-04  0.17130000000E+03  0.17130000000E+03 0. -1.
      622    1    1    2    0    0  0.39571999477E-03  0.20466189907E-03  0.38095631486E+01  0.38095820744E+01  0.12000000000E-01 0. -1.
</event>
<event>
 5   0  0.3564000E+09  0.9118800E+02  0.7818608E-02  0.1180000E+00
       11   -1    0    0    0    0  0.00000000000E+00  0.00000000000E+00  0.39999999673E+01  0.40000000000E+01  0.51109989000E-03 0.  1.
     -623   -1    0    0    0    0  0.00000000000E+00  0.00000000000E+00  0.12525980253E-10  0.17130000000E+03  0.17130000000E+03 0.  1.
       11    1    1    2    0    0 -0.58837962740E-02  0.83808027796E-02  0.10518199083E+01  0.10518698768E+01  0.51109989000E-03 0.  1.
     -623    1    1    2    0    0 -0.29998397826E-03 -0.12832986836E-02  0.89392232922E-04  0.17130000001E+03  0.17130000000E+03 0.  1.
      622    1    1    2    0    0  0.61837802522E-02 -0.70975040960E-02  0.29480906668E+01  0.29481301181E+01  0.12000000000E-01 0. -1.
</event>
<event>
 5   0  0.3564000E+09  0.9118800E+02  0.7818608E-02  0.1180000E+00
       11   -1    0    0    0    0  0.00000000000E+00  0.00000000000E+00  0.39999999673E+01  0.40000000000E+01  0.51109989000E-03 0. -1.
     -623   -1    0    0    0    0  0.00000000000E+00  0.00000000000E+00  0.12525980253E-10  0.17130000000E+03  0.17130000000E+03 0.  1.
       11    1    1    2    0    0 -0.76401275869E-03  0.20761078492E-02  0.76730802382E+00  0.76731138307E+00  0.51109989000E-03 0. -1.
     -623    1    1    2    0    0 -0.29611224759E-02  0.69883855659E-03  0.28963518520E-04  0.17130000003E+03  0.17130000000E+03 0.  1.
      622    1    1    2    0    0  0.37251352427E-02 -0.27749464077E-02  0.32326629911E+01  0.32326886010E+01  0.12000000000E-01 0.  0.
</event>
<event>
 5   0  0.3564000E+09  0.9118800E+02  0.7818608E-02  0.1180000E+00
       11   -1    0    0    0    0  0.00000000000E+00  0.00000000000E+00  0.39999999673E+01  0.40000000000E+01  0.51109989000E-03 0. -1.
     -623   -1    0    0    0    0  0.00000000000E+00  0.00000000000E+00  0.12525980253E-10  0.17130000000E+03  0.17130000000E+03 0. -1.
       11    1    1    2    0    0 -0.18534720980E-02 -0.15453196076E-02  0.43227745486E-01  0.43298066607E-01  0.51109989000E-03 0. -1.
     -623    1    1    2    0    0  0.15741919650E-02  0.34477882691E-03  0.88685089866E-04  0.17130000001E+03  0.17130000000E+03 0. -1.
      622    1    1    2    0    0  0.27928013299E-03  0.12005407807E-02  0.39566835368E+01  0.39567019258E+01  0.12000000000E-01 0. -1.
</event>
<event>
 5   0  0.3564000E+09  0.9118800E+02  0.7818608E-02  0.1180000E+00
       11   -1    0    0    0    0  0.00000000000E+00  0.00000000000E+00  0.39999999673E+01  0.40000000000E+01  0.51109989000E-03 0.  1.
     -623   -1    0    0    0    0  0.00000000000E+00  0.00000000000E+00  0.12525980253E-10  0.17130000000E+03  0.17130000000E+03 0. -1.
       11    1    1    2    0    0 -0.10167095189E-02  0.61983348635E-03  0.37533104680E-01  0.37555466470E-01  0.51109989000E-03 0.  1.
     -623    1    1    2    0    0 -0.11650148085E-02 -0.94581232964E-03  0.41120412003E-04  0.17130000001E+03  0.17130000000E+03 0. -1.
      622    1    1    2    0    0  0.21817243265E-02  0.32597884258E-03  0.39624257393E+01  0.39624445240E+01  0.12000000000E-01 0.  1.
</event>
<event>
 5   0  0.3564000E+09  0.9118800E+02  0.7818608E-02  0.1180000E+00
       11   -1    0    0    0    0  0.00000000000E+00  0.00000000000E+00  0.39999999673E+01  0.40000000000E+01  0.51109989000E-03 0.  1.
     -623   -1    0    0    0    0  0.00000000000E+00  0.00000000000E+00  0.12525980253E-10  0.17130000000E+03  0.17130000000E+03 0.  1.
       11    1    1    2    0    0 -0.38053040622E-03  0.11218030838E-03  0.12664513642E+00  0.12664678911E+00  0.51109989000E-03 0.  1.
     -623    1    1    2    0    0  0.17820669630E-05  0.27834801283E-04  0.20229683022E-04  0.17130000000E+03  0.17130000000E+03 0.  1.
      622    1    1    2    0    0  0.37874833927E-03 -0.14001510950E-03  0.38733345778E+01  0.38733531874E+01  0.12000000000E-01 0.  1.
</event>
<event>
 5   0  0.3564000E+09  0.9118800E+02  0.7818608E-02  0.1180000E+00
       11   -1    0    0    0    0  0.00000000000E+00  0.00000000000E+00  0.39999999673E+01  0.40000000000E+01  0.51109989000E-03 0. -1.
     -623   -1    0    0    0    0  0.00000000000E+00  0.00000000000E+00  0.12525980253E-10  0.17130000000E+03  0.17130000000E+03 0.  1.
       11    1    1    2    0    0  0.13850951336E-02 -0.24625904773E-02  0.18576859177E-01  0.18797440261E-01  0.51109989000E-03 0. -1.
     -623    1    1    2    0    0  0.63567380361E-03  0.45428817008E-03  0.23965481559E-03  0.17130000000E+03  0.17130000000E+03 0.  1.
      622    1    1    2    0    0 -0.20207689376E-02  0.20083023069E-02  0.39811834561E+01  0.39812025605E+01  0.12000000000E-01 0. -1.
</event>
<event>
 5   0  0.3564000E+09  0.9118800E+02  0.7818608E-02  0.1180000E+00
       11   -1    0    0    0    0  0.00000000000E+00  0.00000000000E+00  0.39999999673E+01  0.40000000000E+01  0.51109989000E-03 0.  1.
     -623   -1    0    0    0    0  0.00000000000E+00  0.00000000000E+00  0.12525980253E-10  0.17130000000E+03  0.17130000000E+03 0.  1.
       11    1    1    2    0    0  0.11425573535E-02 -0.21815806238E-03  0.66689148069E-01  0.66701249779E-01  0.51109989000E-03 0.  1.
     -623    1    1    2    0    0  0.11666466994E-03 -0.91053748859E-03  0.30740334011E-04  0.17130000000E+03  0.17130000000E+03 0.  1.
      622    1    1    2    0    0 -0.12592220235E-02  0.11286955510E-02  0.39332800790E+01  0.39332987478E+01  0.12000000000E-01 0.  1.
</event>
<event>
 5   0  0.3564000E+09  0.9118800E+02  0.7818608E-02  0.1180000E+00
       11   -1    0    0    0    0  0.00000000000E+00  0.00000000000E+00  0.39999999673E+01  0.40000000000E+01  0.51109989000E-03 0.  1.
     -623   -1    0    0    0    0  0.00000000000E+00  0.00000000000E+00  0.12525980253E-10  0.17130000000E+03  0.17130000000E+03 0. -1.
       11    1    1    2    0    0  0.41874484797E-05 -0.11561869547E-03  0.72337465006E+00  0.72337483987E+00  0.51109989000E-03 0.  1.
     -623    1    1    2    0    0 -0.62480470571E-03 -0.31195397772E-02  0.23816513321E-04  0.17130000003E+03  0.17130000000E+03 0. -1.
      622    1    1    2    0    0  0.62061725723E-03  0.32351584726E-02  0.32766015008E+01  0.32766251306E+01  0.12000000000E-01 0.  1.
</event>
<event>
 5   0  0.3564000E+09  0.9118800E+02  0.7818608E-02  0.1180000E+00
       11   -1    0    0    0    0  0.00000000000E+00  0.00000000000E+00  0.39999999673E+01  0.40000000000E+01  0.51109989000E-03 0. -1.
     -623   -1    0    0    0    0  0.00000000000E+00  0.00000000000E+00  0.12525980253E-10  0.17130000000E+03  0.17130000000E+03 0.  1.
       11    1    1    2    0    0 -0.57080065109E-02 -0.48524618035E-03  0.90242750789E+00  0.90244583495E+00  0.51109989000E-03 0. -1.
     -623    1    1    2    0    0  0.11902909313E-03 -0.29719402413E-03  0.46679973757E-04  0.17130000000E+03  0.17130000000E+03 0.  1.
      622    1    1    2    0    0  0.55889774177E-02  0.78244020448E-03  0.30975257795E+01  0.30975541647E+01  0.12000000000E-01 0. -1.
</event>
<event>
 5   0  0.3564000E+09  0.9118800E+02  0.7818608E-02  0.1180000E+00
       11   -1    0    0    0    0  0.00000000000E+00  0.00000000000E+00  0.39999999673E+01  0.40000000000E+01  0.51109989000E-03 0. -1.
     -623   -1    0    0    0    0  0.00000000000E+00  0.00000000000E+00  0.12525980253E-10  0.17130000000E+03  0.17130000000E+03 0.  1.
       11    1    1    2    0    0 -0.64718342870E-03  0.39901939734E-02  0.69739838645E-01  0.69858763313E-01  0.51109989000E-03 0. -1.
     -623    1    1    2    0    0 -0.12196444931E-04 -0.34602854065E-04  0.13925801036E-03  0.17130000000E+03  0.17130000000E+03 0.  1.
      622    1    1    2    0    0  0.65937987363E-03 -0.39555911193E-02  0.39301208732E+01  0.39301412391E+01  0.12000000000E-01 0. -1.
</event>
<event>
 5   0  0.3564000E+09  0.9118800E+02  0.7818608E-02  0.1180000E+00
       11   -1    0    0    0    0  0.00000000000E+00  0.00000000000E+00  0.39999999673E+01  0.40000000000E+01  0.51109989000E-03 0.  1.
     -623   -1    0    0    0    0  0.00000000000E+00  0.00000000000E+00  0.12525980253E-10  0.17130000000E+03  0.17130000000E+03 0. -1.
       11    1    1    2    0    0 -0.11212250979E-02  0.37368623407E-02  0.55202283417E+00  0.55203685742E+00  0.51109989000E-03 0.  1.
     -623    1    1    2    0    0 -0.77991691542E-04 -0.12421783482E-02  0.35988129024E-04  0.17130000000E+03  0.17130000000E+03 0. -1.
      622    1    1    2    0    0  0.11992167895E-02 -0.24946839924E-02  0.34479411451E+01  0.34479631381E+01  0.12000000000E-01 0.  0.
</event>
<event>
 5   0  0.3564000E+09  0.9118800E+02  0.7818608E-02  0.1180000E+00
       11   -1    0    0    0    0  0.00000000000E+00  0.00000000000E+00  0.39999999673E+01  0.40000000000E+01  0.51109989000E-03 0.  1.
     -623   -1    0    0    0    0  0.00000000000E+00  0.00000000000E+00  0.12525980253E-10  0.17130000000E+03  0.17130000000E+03 0. -1.
       11    1    1    2    0    0  0.35916355468E-02 -0.42618371175E-02  0.87086865855E+00  0.87088664290E+00  0.51109989000E-03 0.  1.
     -623    1    1    2    0    0  0.77970621637E-05  0.31013950284E-04  0.45891984472E-04  0.17130000000E+03  0.17130000000E+03 0. -1.
      622    1    1    2    0    0 -0.35994326090E-02  0.42308231672E-02  0.31290854205E+01  0.31291133607E+01  0.12000000000E-01 0.  1.
</event>
<event>
 5   0  0.3564000E+09  0.9118800E+02  0.7818608E-02  0.1180000E+00
       11   -1    0    0    0    0  0.00000000000E+00  0.00000000000E+00  0.39999999673E+01  0.40000000000E+01  0.51109989000E-03 0.  1.
     -623   -1    0    0    0    0  0.00000000000E+00  0.00000000000E+00  0.12525980253E-10  0.17130000000E+03  0.17130000000E+03 0.  1.
       11    1    1    2    0    0  0.15545339811E-01 -0.84879565441E-04  0.21439446403E+00  0.21495793129E+00  0.51109989000E-03 0.  1.
     -623    1    1    2    0    0 -0.11043993919E-01 -0.39239231450E-02  0.58765840139E-03  0.17130000040E+03  0.17130000000E+03 0.  1.
      622    1    1    2    0    0 -0.45013458922E-02  0.40088027104E-02  0.37850178449E+01  0.37850416667E+01  0.12000000000E-01 0.  1.
</event>
<event>
 5   0  0.3564000E+09  0.9118800E+02  0.7818608E-02  0.1180000E+00
       11   -1    0    0    0    0  0.00000000000E+00  0.00000000000E+00  0.39999999673E+01  0.40000000000E+01  0.51109989000E-03 0.  1.
     -623   -1    0    0    0    0  0.00000000000E+00  0.00000000000E+00  0.12525980253E-10  0.17130000000E+03  0.17130000000E+03 0.  1.
       11    1    1    2    0    0  0.36124117357E-03  0.64039726817E-03  0.12927335132E-01  0.12958310868E-01  0.51109989000E-03 0.  1.
     -623    1    1    2    0    0 -0.20259091567E-02 -0.42746725522E-04  0.49405942137E-04  0.17130000001E+03  0.17130000000E+03 0.  1.
      622    1    1    2    0    0  0.16646679881E-02 -0.59765054254E-03  0.39870232362E+01  0.39870416870E+01  0.12000000000E-01 0.  1.
</event>
<event>
 5   0  0.3564000E+09  0.9118800E+02  0.7818608E-02  0.1180000E+00
       11   -1    0    0    0    0  0.00000000000E+00  0.00000000000E+00  0.39999999673E+01  0.40000000000E+01  0.51109989000E-03 0. -1.
     -623   -1    0    0    0    0  0.00000000000E+00  0.00000000000E+00  0.12525980253E-10  0.17130000000E+03  0.17130000000E+03 0.  1.
       11    1    1    2    0    0 -0.15357829519E-02 -0.69374113488E-02  0.78771338364E-01  0.79092801654E-01  0.51109989000E-03 0. -1.
     -623    1    1    2    0    0 -0.43995278395E-03  0.15569170296E-03  0.34615752852E-03  0.17130000000E+03  0.17130000000E+03 0.  1.
      622    1    1    2    0    0  0.19757357359E-02  0.67817196458E-02  0.39208824715E+01  0.39209071974E+01  0.12000000000E-01 0. -1.
</event>
<event>
 5   0  0.3564000E+09  0.9118800E+02  0.7818608E-02  0.1180000E+00
       11   -1    0    0    0    0  0.00000000000E+00  0.00000000000E+00  0.39999999673E+01  0.40000000000E+01  0.51109989000E-03 0.  1.
     -623   -1    0    0    0    0  0.00000000000E+00  0.00000000000E+00  0.12525980253E-10  0.17130000000E+03  0.17130000000E+03 0. -1.
       11    1    1    2    0    0  0.48698926713E-03 -0.10921281356E-03  0.84408950325E-01  0.84411973109E-01  0.51109989000E-03 0.  1.
     -623    1    1    2    0    0 -0.47353382089E-04  0.74453607227E-05  0.21404240569E-04  0.17130000000E+03  0.17130000000E+03 0. -1.
      622    1    1    2    0    0 -0.43963588495E-03  0.10176745282E-03  0.39155696205E+01  0.39155880346E+01  0.12000000000E-01 0.  1.
</event>
<event>
 5   0  0.3564000E+09  0.9118800E+02  0.7818608E-02  0.1180000E+00
       11   -1    0    0    0    0  0.00000000000E+00  0.00000000000E+00  0.39999999673E+01  0.40000000000E+01  0.51109989000E-03 0. -1.
     -623   -1    0    0    0    0  0.00000000000E+00  0.00000000000E+00  0.12525980253E-10  0.17130000000E+03  0.17130000000E+03 0.  1.
       11    1    1    2    0    0 -0.10424883620E-02 -0.11890376813E-02  0.19526976822E+00  0.19527683988E+00  0.51109989000E-03 0. -1.
     -623    1    1    2    0    0  0.41591928123E-04  0.61047762116E-04  0.26261800301E-04  0.17130000000E+03  0.17130000000E+03 0.  1.
      622    1    1    2    0    0  0.10008964337E-02  0.11279899190E-02  0.38047039495E+01  0.38047231723E+01  0.12000000000E-01 0. -1.
</event>
<event>
 5   0  0.3564000E+09  0.9118800E+02  0.7818608E-02  0.1180000E+00
       11   -1    0    0    0    0  0.00000000000E+00  0.00000000000E+00  0.39999999673E+01  0.40000000000E+01  0.51109989000E-03 0.  1.
     -623   -1    0    0    0    0  0.00000000000E+00  0.00000000000E+00  0.12525980253E-10  0.17130000000E+03  0.17130000000E+03 0. -1.
       11    1    1    2    0    0  0.11454406532E-01  0.19010388892E-02  0.47363554825E+00  0.47377812441E+00  0.51109989000E-03 0.  1.
     -623    1    1    2    0    0 -0.89141579329E-02  0.24051196338E-02  0.16675524194E-03  0.17130000025E+03  0.17130000000E+03 0. -1.
      622    1    1    2    0    0 -0.25402485988E-02 -0.43061585231E-02  0.35261976639E+01  0.35262216267E+01  0.12000000000E-01 0.  1.
</event>
<event>
 5   0  0.3564000E+09  0.9118800E+02  0.7818608E-02  0.1180000E+00
       11   -1    0    0    0    0  0.00000000000E+00  0.00000000000E+00  0.39999999673E+01  0.40000000000E+01  0.51109989000E-03 0.  1.
     -623   -1    0    0    0    0  0.00000000000E+00  0.00000000000E+00  0.12525980253E-10  0.17130000000E+03  0.17130000000E+03 0. -1.
       11    1    1    2    0    0 -0.80117655741E-03  0.12194050816E-02  0.77315442204E-01  0.77330897173E-01  0.51109989000E-03 0.  1.
     -623    1    1    2    0    0  0.10458219603E-01  0.67587864058E-03  0.46442873395E-04  0.17130000032E+03  0.17130000000E+03 0. -1.
      622    1    1    2    0    0 -0.96570430454E-02 -0.18952837222E-02  0.39226380823E+01  0.39226687822E+01  0.12000000000E-01 0.  1.
</event>
<event>
 5   0  0.3564000E+09  0.9118800E+02  0.7818608E-02  0.1180000E+00
       11   -1    0    0    0    0  0.00000000000E+00  0.00000000000E+00  0.39999999673E+01  0.40000000000E+01  0.51109989000E-03 0.  1.
     -623   -1    0    0    0    0  0.00000000000E+00  0.00000000000E+00  0.12525980253E-10  0.17130000000E+03  0.17130000000E+03 0. -1.
       11    1    1    2    0    0 -0.15012684860E-02 -0.91893865127E-03  0.27899363384E-01  0.27959505640E-01  0.51109989000E-03 0.  1.
     -623    1    1    2    0    0 -0.16469007057E-03 -0.17704642134E-04  0.78696264859E-04  0.17130000000E+03  0.17130000000E+03 0. -1.
      622    1    1    2    0    0  0.16659585567E-02  0.93664329341E-03  0.39720219095E+01  0.39720404961E+01  0.12000000000E-01 0.  1.
</event>
<event>
 5   0  0.3564000E+09  0.9118800E+02  0.7818608E-02  0.1180000E+00
       11   -1    0    0    0    0  0.00000000000E+00  0.00000000000E+00  0.39999999673E+01  0.40000000000E+01  0.51109989000E-03 0. -1.
     -623   -1    0    0    0    0  0.00000000000E+00  0.00000000000E+00  0.12525980253E-10  0.17130000000E+03  0.17130000000E+03 0.  1.
       11    1    1    2    0    0 -0.61521775278E-03  0.40909618248E-03  0.19696024531E+00  0.19696229413E+00  0.51109989000E-03 0. -1.
     -623    1    1    2    0    0 -0.18820669222E-04 -0.16524533135E-04  0.21021577463E-04  0.17130000000E+03  0.17130000000E+03 0.  1.
      622    1    1    2    0    0  0.63403842208E-03 -0.39257164928E-03  0.38030187163E+01  0.38030377217E+01  0.12000000000E-01 0. -1.
</event>
<event>
 5   0  0.3564000E+09  0.9118800E+02  0.7818608E-02  0.1180000E+00
       11   -1    0    0    0    0  0.00000000000E+00  0.00000000000E+00  0.39999999673E+01  0.40000000000E+01  0.51109989000E-03 0. -1.
     -623   -1    0    0    0    0  0.00000000000E+00  0.00000000000E+00  0.12525980253E-10  0.17130000000E+03  0.17130000000E+03 0. -1.
       11    1    1    2    0    0 -0.18312131894E-02 -0.60056874583E-03  0.13750188680E+00  0.13751634128E+00  0.51109989000E-03 0. -1.
     -623    1    1    2    0    0  0.19074976057E-03 -0.12991056310E-02  0.33883301423E-04  0.17130000001E+03  0.17130000000E+03 0. -1.
      622    1    1    2    0    0  0.16404634288E-02  0.18996743769E-02  0.38624641973E+01  0.38624836537E+01  0.12000000000E-01 0. -1.
</event>
<event>
 5   0  0.3564000E+09  0.9118800E+02  0.7818608E-02  0.1180000E+00
       11   -1    0    0    0    0  0.00000000000E+00  0.00000000000E+00  0.39999999673E+01  0.40000000000E+01  0.51109989000E-03 0.  1.
     -623   -1    0    0    0    0  0.00000000000E+00  0.00000000000E+00  0.12525980253E-10  0.17130000000E+03  0.17130000000E+03 0. -1.
       11    1    1    2    0    0  0.14008754773E-02 -0.26770530814E-02  0.27694021663E+00  0.27695716975E+00  0.51109989000E-03 0.  1.
     -623    1    1    2    0    0  0.16426254119E-03 -0.80909783294E-04  0.37610169088E-04  0.17130000000E+03  0.17130000000E+03 0. -1.
      622    1    1    2    0    0 -0.15651380183E-02  0.27579628646E-02  0.37230221357E+01  0.37230428253E+01  0.12000000000E-01 0.  0.
</event>
<event>
 5   0  0.3564000E+09  0.9118800E+02  0.7818608E-02  0.1180000E+00
       11   -1    0    0    0    0  0.00000000000E+00  0.00000000000E+00  0.39999999673E+01  0.40000000000E+01  0.51109989000E-03 0. -1.
     -623   -1    0    0    0    0  0.00000000000E+00  0.00000000000E+00  0.12525980253E-10  0.17130000000E+03  0.17130000000E+03 0.  1.
       11    1    1    2    0    0  0.65438243170E-03  0.24062001949E-02  0.38450284457E+00  0.38451126995E+00  0.51109989000E-03 0. -1.
     -623    1    1    2    0    0  0.54416730643E-04  0.33057769246E-04  0.29199459657E-04  0.17130000000E+03  0.17130000000E+03 0.  1.
      622    1    1    2    0    0 -0.70879916234E-03 -0.24392579642E-02  0.36154679233E+01  0.36154887300E+01  0.12000000000E-01 0. -1.
</event>
<event>
 5   0  0.3564000E+09  0.9118800E+02  0.7818608E-02  0.1180000E+00
       11   -1    0    0    0    0  0.00000000000E+00  0.00000000000E+00  0.39999999673E+01  0.40000000000E+01  0.51109989000E-03 0. -1.
     -623   -1    0    0    0    0  0.00000000000E+00  0.00000000000E+00  0.12525980253E-10  0.17130000000E+03  0.17130000000E+03 0. -1.
       11    1    1    2    0    0 -0.66050216468E-04  0.22865527584E-02  0.11425504766E+00  0.11427908743E+00  0.51109989000E-03 0. -1.
     -623    1    1    2    0    0 -0.49661354613E-02 -0.20671104539E-03  0.46423765194E-04  0.17130000007E+03  0.17130000000E+03 0. -1.
      622    1    1    2    0    0  0.50321856777E-02 -0.20798417130E-02  0.38856984959E+01  0.38857208405E+01  0.12000000000E-01 0. -1.
</event>
<event>
 5   0  0.3564000E+09  0.9118800E+02  0.7818608E-02  0.1180000E+00
       11   -1    0    0    0    0  0.00000000000E+00  0.00000000000E+00  0.39999999673E+01  0.40000000000E+01  0.51109989000E-03 0. -1.
     -623   -1    0    0    0    0  0.00000000000E+00  0.00000000000E+00  0.12525980253E-10  0.17130000000E+03  0.17130000000E+03 0.  1.
       11    1    1    2    0    0 -0.22740068270E-02  0.21350753973E-02  0.61493595298E-01  0.61574776815E-01  0.51109989000E-03 0. -1.
     -623    1    1    2    0    0  0.19043430226E-03  0.22806116607E-03  0.10069073961E-03  0.17130000000E+03  0.17130000000E+03 0.  1.
      622    1    1    2    0    0  0.20835725247E-02 -0.23631365635E-02  0.39384056835E+01  0.39384252251E+01  0.12000000000E-01 0. -1.
</event>
<event>
 5   0  0.3564000E+09  0.9118800E+02  0.7818608E-02  0.1180000E+00
       11   -1    0    0    0    0  0.00000000000E+00  0.00000000000E+00  0.39999999673E+01  0.40000000000E+01  0.51109989000E-03 0. -1.
     -623   -1    0    0    0    0  0.00000000000E+00  0.00000000000E+00  0.12525980253E-10  0.17130000000E+03  0.17130000000E+03 0.  1.
       11    1    1    2    0    0 -0.27749291489E-02  0.16239159419E-02  0.12374891765E+00  0.12379173307E+00  0.51109989000E-03 0. -1.
     -623    1    1    2    0    0 -0.39665899306E-04 -0.18306514729E-02  0.62394857955E-04  0.17130000001E+03  0.17130000000E+03 0.  1.
      622    1    1    2    0    0  0.28145950483E-02  0.20673553098E-03  0.38761886548E+01  0.38762082571E+01  0.12000000000E-01 0. -1.
</event>
<event>
 5   0  0.3564000E+09  0.9118800E+02  0.7818608E-02  0.1180000E+00
       11   -1    0    0    0    0  0.00000000000E+00  0.00000000000E+00  0.39999999673E+01  0.40000000000E+01  0.51109989000E-03 0. -1.
     -623   -1    0    0    0    0  0.00000000000E+00  0.00000000000E+00  0.12525980253E-10  0.17130000000E+03  0.17130000000E+03 0.  1.
       11    1    1    2    0    0 -0.77063631344E-03 -0.23709931619E-03  0.19048320491E+00  0.19048559702E+00  0.51109989000E-03 0. -1.
     -623    1    1    2    0    0 -0.27401372326E-03  0.16813222331E-03  0.21403725039E-04  0.17130000000E+03  0.17130000000E+03 0.  1.
      622    1    1    2    0    0  0.10446500367E-02  0.68967092881E-04  0.38094953587E+01  0.38095144027E+01  0.12000000000E-01 0. -1.
</event>
<event>
 5   0  0.3564000E+09  0.9118800E+02  0.7818608E-02  0.1180000E+00
       11   -1    0    0    0    0  0.00000000000E+00  0.00000000000E+00  0.39999999673E+01  0.40000000000E+01  0.51109989000E-03 0. -1.
     -623   -1    0    0    0    0  0.00000000000E+00  0.00000000000E+00  0.12525980253E-10  0.17130000000E+03  0.17130000000E+03 0. -1.
       11    1    1    2    0    0  0.20601533529E-02  0.43182719760E-03  0.28362372245E+00  0.28363199372E+00  0.51109989000E-03 0. -1.
     -623    1    1    2    0    0 -0.21569221647E-02  0.13579763924E-02  0.28063651699E-04  0.17130000002E+03  0.17130000000E+03 0. -1.
      622    1    1    2    0    0  0.96768811731E-04 -0.17898035900E-02  0.37163481813E+01  0.37163679873E+01  0.12000000000E-01 0. -1.
</event>
<event>
 5   0  0.3564000E+09  0.9118800E+02  0.7818608E-02  0.1180000E+00
       11   -1    0    0    0    0  0.00000000000E+00  0.00000000000E+00  0.39999999673E+01  0.40000000000E+01  0.51109989000E-03 0.  1.
     -623   -1    0    0    0    0  0.00000000000E+00  0.00000000000E+00  0.12525980253E-10  0.17130000000E+03  0.17130000000E+03 0. -1.
       11    1    1    2    0    0 -0.73372555375E-03  0.14309589155E-02  0.24332461132E-01  0.24390897574E-01  0.51109989000E-03 0.  1.
     -623    1    1    2    0    0  0.77510270845E-03 -0.38992946271E-03  0.76653004420E-04  0.17130000000E+03  0.17130000000E+03 0. -1.
      622    1    1    2    0    0 -0.41377155653E-04 -0.10410294523E-02  0.39755908581E+01  0.39756091051E+01  0.12000000000E-01 0.  1.
</event>
<event>
 5   0  0.3564000E+09  0.9118800E+02  0.7818608E-02  0.1180000E+00
       11   -1    0    0    0    0  0.00000000000E+00  0.00000000000E+00  0.39999999673E+01  0.40000000000E+01  0.51109989000E-03 0.  1.
     -623   -1    0    0    0    0  0.00000000000E+00  0.00000000000E+00  0.12525980253E-10  0.17130000000E+03  0.17130000000E+03 0. -1.
       11    1    1    2    0    0  0.93438728891E-03 -0.85468154712E-03  0.87643324428E+00  0.87643430812E+00  0.51109989000E-03 0.  1.
     -623    1    1    2    0    0  0.19231692962E-03  0.35590545178E-05  0.24401149880E-04  0.17130000000E+03  0.17130000000E+03 0. -1.
      622    1    1    2    0    0 -0.11267042188E-02  0.85112249260E-03  0.31235423280E+01  0.31235656979E+01  0.12000000000E-01 0.  0.
</event>
<event>
 5   0  0.3564000E+09  0.9118800E+02  0.7818608E-02  0.1180000E+00
       11   -1    0    0    0    0  0.00000000000E+00  0.00000000000E+00  0.39999999673E+01  0.40000000000E+01  0.51109989000E-03 0. -1.
     -623   -1    0    0    0    0  0.00000000000E+00  0.00000000000E+00  0.12525980253E-10  0.17130000000E+03  0.17130000000E+03 0.  1.
       11    1    1    2    0    0 -0.27248199310E-02  0.12006381343E-02  0.15238098167E-01  0.15534704121E-01  0.51109989000E-03 0. -1.
     -623    1    1    2    0    0  0.32100725090E-02 -0.34541454794E-02  0.31537554056E-03  0.17130000007E+03  0.17130000000E+03 0.  1.
      622    1    1    2    0    0 -0.48525257795E-03  0.22535073451E-02  0.39844464937E+01  0.39844652307E+01  0.12000000000E-01 0. -1.
</event>
<event>
 5   0  0.3564000E+09  0.9118800E+02  0.7818608E-02  0.1180000E+00
       11   -1    0    0    0    0  0.00000000000E+00  0.00000000000E+00  0.39999999673E+01  0.40000000000E+01  0.51109989000E-03 0.  1.
     -623   -1    0    0    0    0  0.00000000000E+00  0.00000000000E+00  0.12525980253E-10  0.17130000000E+03  0.17130000000E+03 0. -1.
       11    1    1    2    0    0  0.77162607071E-02  0.42669307817E-02  0.43281009949E+00  0.43290020885E+00  0.51109989000E-03 0.  1.
     -623    1    1    2    0    0 -0.52884673837E-02  0.23627950924E-02  0.11734636847E-03  0.17130000010E+03  0.17130000000E+03 0. -1.
      622    1    1    2    0    0 -0.24277933209E-02 -0.66297258752E-02  0.35670725234E+01  0.35670996951E+01  0.12000000000E-01 0.  1.
</event>
<event>
 5   0  0.3564000E+09  0.9118800E+02  0.7818608E-02  0.1180000E+00
       11   -1    0    0    0    0  0.00000000000E+00  0.00000000000E+00  0.39999999673E+01  0.40000000000E+01  0.51109989000E-03 0. -1.
     -623   -1    0    0    0    0  0.00000000000E+00  0.00000000000E+00  0.12525980253E-10  0.17130000000E+03  0.17130000000E+03 0.  1.
       11    1    1    2    0    0  0.70023922052E-03 -0.36827533314E-02  0.40673656274E+00  0.40675415880E+00  0.51109989000E-03 0. -1.
     -623    1    1    2    0    0  0.23047943046E-02 -0.15304969538E-03  0.40920588633E-04  0.17130000002E+03  0.17130000000E+03 0.  1.
      622    1    1    2    0    0 -0.30050335257E-02  0.38358030268E-02  0.35932224851E+01  0.35932458267E+01  0.12000000000E-01 0. -1.
</event>
<event>
 5   0  0.3564000E+09  0.9118800E+02  0.7818608E-02  0.1180000E+00
       11   -1    0    0    0    0  0.00000000000E+00  0.00000000000E+00  0.39999999673E+01  0.40000000000E+01  0.51109989000E-03 0. -1.
     -623   -1    0    0    0    0  0.00000000000E+00  0.00000000000E+00  0.12525980253E-10  0.17130000000E+03  0.17130000000E+03 0.  1.
       11    1    1    2    0    0 -0.46354084348E-04 -0.16553587143E-02  0.31142320881E-02  0.35639899339E-02  0.51109989000E-03 0. -1.
     -623    1    1    2    0    0 -0.59726302025E-03  0.88330997402E-03  0.46787165712E-03  0.17130000000E+03  0.17130000000E+03 0.  1.
      622    1    1    2    0    0  0.64361710460E-03  0.77204874032E-03  0.39964178636E+01  0.39964360061E+01  0.12000000000E-01 0. -1.
</event>
<event>
 5   0  0.3564000E+09  0.9118800E+02  0.7818608E-02  0.1180000E+00
       11   -1    0    0    0    0  0.00000000000E+00  0.00000000000E+00  0.39999999673E+01  0.40000000000E+01  0.51109989000E-03 0.  1.
     -623   -1    0    0    0    0  0.00000000000E+00  0.00000000000E+00  0.12525980253E-10  0.17130000000E+03  0.17130000000E+03 0.  1.
       11    1    1    2    0    0 -0.14567704888E-04  0.13342730100E-02  0.17354094016E-01  0.17412819958E-01  0.51109989000E-03 0.  1.
     -623    1    1    2    0    0 -0.23531265703E-03 -0.15794637039E-03  0.76953859281E-04  0.17130000000E+03  0.17130000000E+03 0.  1.
      622    1    1    2    0    0  0.24988036228E-03 -0.11763266394E-02  0.39825689255E+01  0.39825871859E+01  0.12000000000E-01 0.  1.
</event>
<event>
 5   0  0.3564000E+09  0.9118800E+02  0.7818608E-02  0.1180000E+00
       11   -1    0    0    0    0  0.00000000000E+00  0.00000000000E+00  0.39999999673E+01  0.40000000000E+01  0.51109989000E-03 0. -1.
     -623   -1    0    0    0    0  0.00000000000E+00  0.00000000000E+00  0.12525980253E-10  0.17130000000E+03  0.17130000000E+03 0. -1.
       11    1    1    2    0    0  0.17237954684E-02 -0.56536839405E-02  0.42288162292E+00  0.42292323634E+00  0.51109989000E-03 0. -1.
     -623    1    1    2    0    0  0.17773151325E-02  0.13597013409E-02  0.66014325692E-04  0.17130000001E+03  0.17130000000E+03 0. -1.
      622    1    1    2    0    0 -0.35011106009E-02  0.42939825996E-02  0.35770523301E+01  0.35770767490E+01  0.12000000000E-01 0. -1.
</event>
<event>
 5   0  0.3564000E+09  0.9118800E+02  0.7818608E-02  0.1180000E+00
       11   -1    0    0    0    0  0.00000000000E+00  0.00000000000E+00  0.39999999673E+01  0.40000000000E+01  0.51109989000E-03 0.  1.
     -623   -1    0    0    0    0  0.00000000000E+00  0.00000000000E+00  0.12525980253E-10  0.17130000000E+03  0.17130000000E+03 0.  1.
       11    1    1    2    0    0  0.45723702573E-03 -0.30849096916E-02  0.12146327254E+00  0.12150437660E+00  0.51109989000E-03 0.  1.
     -623    1    1    2    0    0  0.12950668743E-03  0.37681885018E-05  0.60903664817E-04  0.17130000000E+03  0.17130000000E+03 0.  1.
      622    1    1    2    0    0 -0.58674371335E-03  0.30811415031E-02  0.38784757970E+01  0.38784956291E+01  0.12000000000E-01 0.  1.
</event>
<event>
 5   0  0.3564000E+09  0.9118800E+02  0.7818608E-02  0.1180000E+00
       11   -1    0    0    0    0  0.00000000000E+00  0.00000000000E+00  0.39999999673E+01  0.40000000000E+01  0.51109989000E-03 0. -1.
     -623   -1    0    0    0    0  0.00000000000E+00  0.00000000000E+00  0.12525980253E-10  0.17130000000E+03  0.17130000000E+03 0.  1.
       11    1    1    2    0    0  0.77102599933E-03  0.74313804809E-03  0.66926246995E+00  0.66926352182E+00  0.51109989000E-03 0. -1.
     -623    1    1    2    0    0  0.10932337250E-04  0.94259016620E-04  0.22833229498E-04  0.17130000000E+03  0.17130000000E+03 0.  1.
      622    1    1    2    0    0 -0.78195833658E-03 -0.83739706479E-03  0.33307146672E+01  0.33307364811E+01  0.12000000000E-01 0. -1.
</event>
<event>
 5   0  0.3564000E+09  0.9118800E+02  0.7818608E-02  0.1180000E+00
       11   -1    0    0    0    0  0.00000000000E+00  0.00000000000E+00  0.39999999673E+01  0.40000000000E+01  0.51109989000E-03 0. -1.
     -623   -1    0    0    0    0  0.00000000000E+00  0.00000000000E+00  0.12525980253E-10  0.17130000000E+03  0.17130000000E+03 0.  1.
       11    1    1    2    0    0  0.23488756001E-01  0.49685503802E-02  0.32596964783E+00  0.32685299552E+00  0.51109989000E-03 0. -1.
     -623    1    1    2    0    0 -0.92438033266E-03  0.11709946247E-02  0.97736548143E-03  0.17130000001E+03  0.17130000000E+03 0.  1.
      622    1    1    2    0    0 -0.22564375669E-01 -0.61395450049E-02  0.36730529539E+01  0.36731469951E+01  0.12000000000E-01 0. -1.
</event>
<event>
 5   0  0.3564000E+09  0.9118800E+02  0.7818608E-02  0.1180000E+00
       11   -1    0    0    0    0  0.00000000000E+00  0.00000000000E+00  0.39999999673E+01  0.40000000000E+01  0.51109989000E-03 0. -1.
     -623   -1    0    0    0    0  0.00000000000E+00  0.00000000000E+00  0.12525980253E-10  0.17130000000E+03  0.17130000000E+03 0.  1.
       11    1    1    2    0    0  0.17542333000E-02 -0.12187962655E-02  0.64760254486E-01  0.64797489019E-01  0.51109989000E-03 0. -1.
     -623    1    1    2    0    0 -0.29886628060E-02  0.24084811706E-02  0.55914784834E-04  0.17130000004E+03  0.17130000000E+03 0.  1.
      622    1    1    2    0    0  0.12344295060E-02 -0.11896849051E-02  0.39351837981E+01  0.39352024680E+01  0.12000000000E-01 0. -1.
</event>
<event>
 5   0  0.3564000E+09  0.9118800E+02  0.7818608E-02  0.1180000E+00
       11   -1    0    0    0    0  0.00000000000E+00  0.00000000000E+00  0.39999999673E+01  0.40000000000E+01  0.51109989000E-03 0. -1.
     -623   -1    0    0    0    0  0.00000000000E+00  0.00000000000E+00  0.12525980253E-10  0.17130000000E+03  0.17130000000E+03 0. -1.
       11    1    1    2    0    0 -0.87421490105E-04 -0.99492668347E-03  0.78678110281E-01  0.78686109207E-01  0.51109989000E-03 0. -1.
     -623    1    1    2    0    0 -0.24482428528E-03 -0.97508050491E-04  0.26493972413E-04  0.17130000000E+03  0.17130000000E+03 0. -1.
      622    1    1    2    0    0  0.33224577510E-03  0.10924347338E-02  0.39212953584E+01  0.39213138859E+01  0.12000000000E-01 0. -1.
</event>
<event>
 5   0  0.3564000E+09  0.9118800E+02  0.7818608E-02  0.1180000E+00
       11   -1    0    0    0    0  0.00000000000E+00  0.00000000000E+00  0.39999999673E+01  0.40000000000E+01  0.51109989000E-03 0.  1.
     -623   -1    0    0    0    0  0.00000000000E+00  0.00000000000E+00  0.12525980253E-10  0.17130000000E+03  0.17130000000E+03 0. -1.
       11    1    1    2    0    0 -0.10600288817E-02  0.44194952598E-04  0.30077862288E+00  0.30078092829E+00  0.51109989000E-03 0.  1.
     -623    1    1    2    0    0 -0.28138030539E-03  0.17891859972E-03  0.21986648217E-04  0.17130000000E+03  0.17130000000E+03 0. -1.
      622    1    1    2    0    0  0.13414091882E-02 -0.22311355304E-03  0.36991993739E+01  0.36992190874E+01  0.12000000000E-01 0.  1.
</event>
<event>
 5   0  0.3564000E+09  0.9118800E+02  0.7818608E-02  0.1180000E+00
       11   -1    0    0    0    0  0.00000000000E+00  0.00000000000E+00  0.39999999673E+01  0.40000000000E+01  0.51109989000E-03 0. -1.
     -623   -1    0    0    0    0  0.00000000000E+00  0.00000000000E+00  0.12525980253E-10  0.17130000000E+03  0.17130000000E+03 0.  1.
       11    1    1    2    0    0 -0.96267666971E-03 -0.24762050580E-02  0.24708204075E-01  0.24855882771E-01  0.51109989000E-03 0.  1.
     -623    1    1    2    0    0  0.36312478467E-03  0.15709853438E-02  0.16591459990E-03  0.17130000001E+03  0.17130000000E+03 0.  1.
      622    1    1    2    0    0  0.59955188504E-03  0.90521971424E-03  0.39751258487E+01  0.39751441096E+01  0.12000000000E-01 0. -1.
</event>
<event>
 5   0  0.3564000E+09  0.9118800E+02  0.7818608E-02  0.1180000E+00
       11   -1    0    0    0    0  0.00000000000E+00  0.00000000000E+00  0.39999999673E+01  0.40000000000E+01  0.51109989000E-03 0.  1.
     -623   -1    0    0    0    0  0.00000000000E+00  0.00000000000E+00  0.12525980253E-10  0.17130000000E+03  0.17130000000E+03 0.  1.
       11    1    1    2    0    0  0.23722313920E-05  0.24341499956E-02  0.42135825272E+00  0.42136559357E+00  0.51109989000E-03 0.  1.
     -623    1    1    2    0    0 -0.12160020542E-03 -0.50836860822E-02  0.28485977445E-04  0.17130000008E+03  0.17130000000E+03 0.  1.
      622    1    1    2    0    0  0.11922797403E-03  0.26495360866E-02  0.35786132287E+01  0.35786343309E+01  0.12000000000E-01 0.  1.
</event>
<event>
 5   0  0.3564000E+09  0.9118800E+02  0.7818608E-02  0.1180000E+00
       11   -1    0    0    0    0  0.00000000000E+00  0.00000000000E+00  0.39999999673E+01  0.40000000000E+01  0.51109989000E-03 0. -1.
     -623   -1    0    0    0    0  0.00000000000E+00  0.00000000000E+00  0.12525980253E-10  0.17130000000E+03  0.17130000000E+03 0. -1.
       11    1    1    2    0    0  0.26928047609E-02 -0.19563960194E-02  0.27714110533E+00  0.27716156330E+00  0.51109989000E-03 0. -1.
     -623    1    1    2    0    0  0.79504668356E-03  0.90426583914E-04  0.41868821644E-04  0.17130000000E+03  0.17130000000E+03 0. -1.
      622    1    1    2    0    0 -0.34878514445E-02  0.18659694355E-02  0.37228169932E+01  0.37228384348E+01  0.12000000000E-01 0. -1.
</event>
<event>
 5   0  0.3564000E+09  0.9118800E+02  0.7818608E-02  0.1180000E+00
       11   -1    0    0    0    0  0.00000000000E+00  0.00000000000E+00  0.39999999673E+01  0.40000000000E+01  0.51109989000E-03 0. -1.
     -623   -1    0    0    0    0  0.00000000000E+00  0.00000000000E+00  0.12525980253E-10  0.17130000000E+03  0.17130000000E+03 0.  1.
       11    1    1    2    0    0  0.29422896576E-03  0.16692036103E-03  0.54550972170E-01  0.54554415228E-01  0.51109989000E-03 0. -1.
     -623    1    1    2    0    0 -0.11594887500E-02  0.61300136554E-03  0.21836337237E-04  0.17130000001E+03  0.17130000000E+03 0.  1.
      622    1    1    2    0    0  0.86525978192E-03 -0.77992172536E-03  0.39454271509E+01  0.39454455718E+01  0.12000000000E-01 0. -1.
</event>
<event>
 5   0  0.3564000E+09  0.9118800E+02  0.7818608E-02  0.1180000E+00
       11   -1    0    0    0    0  0.00000000000E+00  0.00000000000E+00  0.39999999673E+01  0.40000000000E+01  0.51109989000E-03 0. -1.
     -623   -1    0    0    0    0  0.00000000000E+00  0.00000000000E+00  0.12525980253E-10  0.17130000000E+03  0.17130000000E+03 0. -1.
       11    1    1    2    0    0 -0.14368423210E-02 -0.21580440362E-02  0.31731483760E+00  0.31732584051E+00  0.51109989000E-03 0. -1.
     -623    1    1    2    0    0 -0.14593746399E-02  0.10345410022E-02  0.31840914363E-04  0.17130000001E+03  0.17130000000E+03 0. -1.
      622    1    1    2    0    0  0.28962169608E-02  0.11235030339E-02  0.36826532888E+01  0.36826741502E+01  0.12000000000E-01 0. -1.
</event>
<event>
 5   0  0.3564000E+09  0.9118800E+02  0.7818608E-02  0.1180000E+00
       11   -1    0    0    0    0  0.00000000000E+00  0.00000000000E+00  0.39999999673E+01  0.40000000000E+01  0.51109989000E-03 0.  1.
     -623   -1    0    0    0    0  0.00000000000E+00  0.00000000000E+00  0.12525980253E-10  0.17130000000E+03  0.17130000000E+03 0. -1.
       11    1    1    2    0    0  0.72616374887E-02  0.72373904547E-02  0.38140380504E+00  0.38154191765E+00  0.51109989000E-03 0.  1.
     -623    1    1    2    0    0 -0.10110092150E-02  0.51858309728E-03  0.17169297112E-03  0.17130000000E+03  0.17130000000E+03 0. -1.
      622    1    1    2    0    0 -0.62506282736E-02 -0.77559735520E-02  0.36184244693E+01  0.36184580785E+01  0.12000000000E-01 0.  1.
</event>
<event>
 5   0  0.3564000E+09  0.9118800E+02  0.7818608E-02  0.1180000E+00
       11   -1    0    0    0    0  0.00000000000E+00  0.00000000000E+00  0.39999999673E+01  0.40000000000E+01  0.51109989000E-03 0. -1.
     -623   -1    0    0    0    0  0.00000000000E+00  0.00000000000E+00  0.12525980253E-10  0.17130000000E+03  0.17130000000E+03 0.  1.
       11    1    1    2    0    0  0.11543695579E-02  0.48374649875E-02  0.61164706702E+00  0.61166749909E+00  0.51109989000E-03 0. -1.
     -623    1    1    2    0    0  0.32009132719E-03  0.10951657885E-04  0.45438874954E-04  0.17130000000E+03  0.17130000000E+03 0.  1.
      622    1    1    2    0    0 -0.14744608851E-02 -0.48484166454E-02  0.33883074615E+01  0.33883325006E+01  0.12000000000E-01 0. -1.
</event>
<event>
 5   0  0.3564000E+09  0.9118800E+02  0.7818608E-02  0.1180000E+00
       11   -1    0    0    0    0  0.00000000000E+00  0.00000000000E+00  0.39999999673E+01  0.40000000000E+01  0.51109989000E-03 0. -1.
     -623   -1    0    0    0    0  0.00000000000E+00  0.00000000000E+00  0.12525980253E-10  0.17130000000E+03  0.17130000000E+03 0.  1.
       11    1    1    2    0    0 -0.49916038055E-03 -0.13199819813E-02  0.11082416253E-01  0.11183590017E-01  0.51109989000E-03 0. -1.
     -623    1    1    2    0    0 -0.61707431293E-04  0.60303750325E-04  0.11943003375E-03  0.17130000000E+03  0.17130000000E+03 0.  1.
      622    1    1    2    0    0  0.56086781184E-03  0.12596782310E-02  0.39887981211E+01  0.39888164099E+01  0.12000000000E-01 0. -1.
</event>
<event>
 5   0  0.3564000E+09  0.9118800E+02  0.7818608E-02  0.1180000E+00
       11   -1    0    0    0    0  0.00000000000E+00  0.00000000000E+00  0.39999999673E+01  0.40000000000E+01  0.51109989000E-03 0. -1.
     -623   -1    0    0    0    0  0.00000000000E+00  0.00000000000E+00  0.12525980253E-10  0.17130000000E+03  0.17130000000E+03 0. -1.
       11    1    1    2    0    0  0.56452031916E-03 -0.75028646508E-02  0.74411281565E+00  0.74415102989E+00  0.51109989000E-03 0. -1.
     -623    1    1    2    0    0  0.45340455322E-03 -0.29053198555E-03  0.69783166896E-04  0.17130000000E+03  0.17130000000E+03 0. -1.
      622    1    1    2    0    0 -0.10179248729E-02  0.77933966367E-02  0.32558173735E+01  0.32558489742E+01  0.12000000000E-01 0. -1.
</event>
<event>
 5   0  0.3564000E+09  0.9118800E+02  0.7818608E-02  0.1180000E+00
       11   -1    0    0    0    0  0.00000000000E+00  0.00000000000E+00  0.39999999673E+01  0.40000000000E+01  0.51109989000E-03 0. -1.
     -623   -1    0    0    0    0  0.00000000000E+00  0.00000000000E+00  0.12525980253E-10  0.17130000000E+03  0.17130000000E+03 0.  1.
       11    1    1    2    0    0 -0.83568428326E-02  0.46714442431E-02  0.46071238440E-01  0.47058255881E-01  0.51109989000E-03 0. -1.
     -623    1    1    2    0    0  0.25392569707E-02 -0.32808471101E-02  0.10097778640E-02  0.17130000005E+03  0.17130000000E+03 0.  1.
      622    1    1    2    0    0  0.58175858618E-02 -0.13905971330E-02  0.39529189511E+01  0.39529416909E+01  0.12000000000E-01 0. -1.
</event>
<event>
 5   0  0.3564000E+09  0.9118800E+02  0.7818608E-02  0.1180000E+00
       11   -1    0    0    0    0  0.00000000000E+00  0.00000000000E+00  0.39999999673E+01  0.40000000000E+01  0.51109989000E-03 0. -1.
     -623   -1    0    0    0    0  0.00000000000E+00  0.00000000000E+00  0.12525980253E-10  0.17130000000E+03  0.17130000000E+03 0. -1.
       11    1    1    2    0    0  0.98434790162E-03  0.19346341162E-02  0.10697367501E+00  0.10699691639E+00  0.51109989000E-03 0. -1.
     -623    1    1    2    0    0 -0.26328933874E-02  0.99251980018E-03  0.43176135338E-04  0.17130000002E+03  0.17130000000E+03 0. -1.
      622    1    1    2    0    0  0.16485454858E-02 -0.29271539163E-02  0.38929831162E+01  0.38930030605E+01  0.12000000000E-01 0. -1.
</event>
<event>
 5   0  0.3564000E+09  0.9118800E+02  0.7818608E-02  0.1180000E+00
       11   -1    0    0    0    0  0.00000000000E+00  0.00000000000E+00  0.39999999673E+01  0.40000000000E+01  0.51109989000E-03 0. -1.
     -623   -1    0    0    0    0  0.00000000000E+00  0.00000000000E+00  0.12525980253E-10  0.17130000000E+03  0.17130000000E+03 0.  1.
       11    1    1    2    0    0  0.94527060708E-03  0.43380357664E-02  0.54941989739E+00  0.54943807382E+00  0.51109989000E-03 0. -1.
     -623    1    1    2    0    0 -0.89584437595E-03  0.18784449685E-02  0.44622818155E-04  0.17130000001E+03  0.17130000000E+03 0.  1.
      622    1    1    2    0    0 -0.49426231993E-04 -0.62164807330E-02  0.34505354433E+01  0.34505619097E+01  0.12000000000E-01 0. -1.
</event>
<event>
 5   0  0.3564000E+09  0.9118800E+02  0.7818608E-02  0.1180000E+00
       11   -1    0    0    0    0  0.00000000000E+00  0.00000000000E+00  0.39999999673E+01  0.40000000000E+01  0.51109989000E-03 0. -1.
     -623   -1    0    0    0    0  0.00000000000E+00  0.00000000000E+00  0.12525980253E-10  0.17130000000E+03  0.17130000000E+03 0.  1.
       11    1    1    2    0    0 -0.50328510007E-03 -0.79464309577E-03  0.10983659616E+01  0.10983664832E+01  0.51109989000E-03 0. -1.
     -623    1    1    2    0    0  0.16709709872E-04 -0.44350066779E-04  0.25464850420E-04  0.17130000000E+03  0.17130000000E+03 0.  1.
      622    1    1    2    0    0  0.48657539015E-03  0.83899316269E-03  0.29016085535E+01  0.29016335293E+01  0.12000000000E-01 0.  1.
</event>
<event>
 5   0  0.3564000E+09  0.9118800E+02  0.7818608E-02  0.1180000E+00
       11   -1    0    0    0    0  0.00000000000E+00  0.00000000000E+00  0.39999999673E+01  0.40000000000E+01  0.51109989000E-03 0.  1.
     -623   -1    0    0    0    0  0.00000000000E+00  0.00000000000E+00  0.12525980253E-10  0.17130000000E+03  0.17130000000E+03 0. -1.
       11    1    1    2    0    0 -0.73544712935E-03  0.27793837011E-02  0.26947448893E+00  0.26949031015E+00  0.51109989000E-03 0.  1.
     -623    1    1    2    0    0 -0.50440497922E-03 -0.41681892205E-02  0.35604949516E-04  0.17130000005E+03  0.17130000000E+03 0. -1.
      622    1    1    2    0    0  0.12398521077E-02  0.13888055120E-02  0.37304898663E+01  0.37305096312E+01  0.12000000000E-01 0.  1.
</event>
<event>
 5   0  0.3564000E+09  0.9118800E+02  0.7818608E-02  0.1180000E+00
       11   -1    0    0    0    0  0.00000000000E+00  0.00000000000E+00  0.39999999673E+01  0.40000000000E+01  0.51109989000E-03 0.  1.
     -623   -1    0    0    0    0  0.00000000000E+00  0.00000000000E+00  0.12525980253E-10  0.17130000000E+03  0.17130000000E+03 0. -1.
       11    1    1    2    0    0 -0.54124000985E-04  0.31841067006E-03  0.37824001918E-01  0.37828833680E-01  0.51109989000E-03 0.  1.
     -623    1    1    2    0    0  0.64953127618E-04  0.46742063026E-04  0.22987879407E-04  0.17130000000E+03  0.17130000000E+03 0. -1.
      622    1    1    2    0    0 -0.10829126633E-04 -0.36515273309E-03  0.39621529776E+01  0.39621711663E+01  0.12000000000E-01 0.  1.
</event>
<event>
 5   0  0.3564000E+09  0.9118800E+02  0.7818608E-02  0.1180000E+00
       11   -1    0    0    0    0  0.00000000000E+00  0.00000000000E+00  0.39999999673E+01  0.40000000000E+01  0.51109989000E-03 0. -1.
     -623   -1    0    0    0    0  0.00000000000E+00  0.00000000000E+00  0.12525980253E-10  0.17130000000E+03  0.17130000000E+03 0. -1.
       11    1    1    2    0    0  0.40685845069E-03 -0.54758034800E-03  0.62531225507E-02  0.63109540988E-02  0.51109989000E-03 0.  1.
     -623    1    1    2    0    0 -0.55177155597E-03  0.27662809593E-03  0.75840342249E-04  0.17130000000E+03  0.17130000000E+03 0. -1.
      622    1    1    2    0    0  0.14491310528E-03  0.27095225207E-03  0.39936710045E+01  0.39936890448E+01  0.12000000000E-01 0. -1.
</event>
<event>
 5   0  0.3564000E+09  0.9118800E+02  0.7818608E-02  0.1180000E+00
       11   -1    0    0    0    0  0.00000000000E+00  0.00000000000E+00  0.39999999673E+01  0.40000000000E+01  0.51109989000E-03 0.  1.
     -623   -1    0    0    0    0  0.00000000000E+00  0.00000000000E+00  0.12525980253E-10  0.17130000000E+03  0.17130000000E+03 0. -1.
       11    1    1    2    0    0 -0.18792512239E-02 -0.12236195245E-02  0.17499551004E+00  0.17501062422E+00  0.51109989000E-03 0.  1.
     -623    1    1    2    0    0  0.32379079065E-03 -0.29414980624E-03  0.34523123278E-04  0.17130000000E+03  0.17130000000E+03 0. -1.
      622    1    1    2    0    0  0.15554604338E-02  0.15177693302E-02  0.38249699277E+01  0.38249893687E+01  0.12000000000E-01 0.  1.
</event>
<event>
 5   0  0.3564000E+09  0.9118800E+02  0.7818608E-02  0.1180000E+00
       11   -1    0    0    0    0  0.00000000000E+00  0.00000000000E+00  0.39999999673E+01  0.40000000000E+01  0.51109989000E-03 0. -1.
     -623   -1    0    0    0    0  0.00000000000E+00  0.00000000000E+00  0.12525980253E-10  0.17130000000E+03  0.17130000000E+03 0. -1.
       11    1    1    2    0    0 -0.67732795415E-04 -0.27869593810E-04  0.16057968194E+00  0.16058051201E+00  0.51109989000E-03 0. -1.
     -623    1    1    2    0    0  0.18404333179E-03 -0.25516806781E-03  0.19562796154E-04  0.17130000000E+03  0.17130000000E+03 0. -1.
      622    1    1    2    0    0 -0.11631053638E-03  0.28303766162E-03  0.38394007226E+01  0.38394194877E+01  0.12000000000E-01 0. -1.
</event>
<event>
 5   0  0.3564000E+09  0.9118800E+02  0.7818608E-02  0.1180000E+00
       11   -1    0    0    0    0  0.00000000000E+00  0.00000000000E+00  0.39999999673E+01  0.40000000000E+01  0.51109989000E-03 0. -1.
     -623   -1    0    0    0    0  0.00000000000E+00  0.00000000000E+00  0.12525980253E-10  0.17130000000E+03  0.17130000000E+03 0. -1.
       11    1    1    2    0    0  0.87854276969E-02  0.10338777488E-02  0.52423191878E+00  0.52430679810E+00  0.51109989000E-03 0. -1.
     -623    1    1    2    0    0  0.40049555675E-02  0.26542796812E-03  0.11938617599E-03  0.17130000005E+03  0.17130000000E+03 0. -1.
      622    1    1    2    0    0 -0.12790383267E-01 -0.12993057171E-02  0.34756486646E+01  0.34756931570E+01  0.12000000000E-01 0.  0.
</event>
<event>
 5   0  0.3564000E+09  0.9118800E+02  0.7818608E-02  0.1180000E+00
       11   -1    0    0    0    0  0.00000000000E+00  0.00000000000E+00  0.39999999673E+01  0.40000000000E+01  0.51109989000E-03 0.  1.
     -623   -1    0    0    0    0  0.00000000000E+00  0.00000000000E+00  0.12525980253E-10  0.17130000000E+03  0.17130000000E+03 0.  1.
       11    1    1    2    0    0 -0.83847835640E-02 -0.49256346407E-02  0.17688840245E+00  0.17715624351E+00  0.51109989000E-03 0.  1.
     -623    1    1    2    0    0  0.12544389442E-01  0.51762614450E-02  0.28945163033E-03  0.17130000054E+03  0.17130000000E+03 0.  1.
      622    1    1    2    0    0 -0.41596058780E-02 -0.25062680425E-03  0.38228221133E+01  0.38228432187E+01  0.12000000000E-01 0.  1.
</event>
<event>
 5   0  0.3564000E+09  0.9118800E+02  0.7818608E-02  0.1180000E+00
       11   -1    0    0    0    0  0.00000000000E+00  0.00000000000E+00  0.39999999673E+01  0.40000000000E+01  0.51109989000E-03 0. -1.
     -623   -1    0    0    0    0  0.00000000000E+00  0.00000000000E+00  0.12525980253E-10  0.17130000000E+03  0.17130000000E+03 0. -1.
       11    1    1    2    0    0 -0.11852810132E-02 -0.42907980101E-03  0.12640402192E+00  0.12641134040E+00  0.51109989000E-03 0. -1.
     -623    1    1    2    0    0 -0.13565780782E-04  0.14990898229E-03  0.26068943507E-04  0.17130000000E+03  0.17130000000E+03 0. -1.
      622    1    1    2    0    0  0.11988467940E-02  0.27917081862E-03  0.38735698794E+01  0.38735886624E+01  0.12000000000E-01 0. -1.
</event>
<event>
 5   0  0.3564000E+09  0.9118800E+02  0.7818608E-02  0.1180000E+00
       11   -1    0    0    0    0  0.00000000000E+00  0.00000000000E+00  0.39999999673E+01  0.40000000000E+01  0.51109989000E-03 0.  1.
     -623   -1    0    0    0    0  0.00000000000E+00  0.00000000000E+00  0.12525980253E-10  0.17130000000E+03  0.17130000000E+03 0.  1.
       11    1    1    2    0    0 -0.60512289456E-02  0.48386065479E-02  0.58014293559E+00  0.58019489521E+00  0.51109989000E-03 0.  1.
     -623    1    1    2    0    0  0.96518936291E-02 -0.34866715766E-02  0.75451078252E-04  0.17130000031E+03  0.17130000000E+03 0.  1.
      622    1    1    2    0    0 -0.36006646958E-02 -0.13519349669E-02  0.34197815858E+01  0.34198048025E+01  0.12000000000E-01 0.  1.
</event>
<event>
 5   0  0.3564000E+09  0.9118800E+02  0.7818608E-02  0.1180000E+00
       11   -1    0    0    0    0  0.00000000000E+00  0.00000000000E+00  0.39999999673E+01  0.40000000000E+01  0.51109989000E-03 0. -1.
     -623   -1    0    0    0    0  0.00000000000E+00  0.00000000000E+00  0.12525980253E-10  0.17130000000E+03  0.17130000000E+03 0.  1.
       11    1    1    2    0    0  0.26417955600E-02  0.20899918098E-03  0.54308612548E-01  0.54375632267E-01  0.51109989000E-03 0. -1.
     -623    1    1    2    0    0 -0.99840842192E-03  0.77540278040E-03  0.85704914407E-04  0.17130000000E+03  0.17130000000E+03 0.  1.
      622    1    1    2    0    0 -0.16433871378E-02 -0.98440196165E-03  0.39456056513E+01  0.39456243644E+01  0.12000000000E-01 0. -1.
</event>
<event>
 5   0  0.3564000E+09  0.9118800E+02  0.7818608E-02  0.1180000E+00
       11   -1    0    0    0    0  0.00000000000E+00  0.00000000000E+00  0.39999999673E+01  0.40000000000E+01  0.51109989000E-03 0. -1.
     -623   -1    0    0    0    0  0.00000000000E+00  0.00000000000E+00  0.12525980253E-10  0.17130000000E+03  0.17130000000E+03 0.  1.
       11    1    1    2    0    0  0.14044037983E-02 -0.22177969268E-04  0.63037101538E-01  0.63054819285E-01  0.51109989000E-03 0. -1.
     -623    1    1    2    0    0 -0.22044083963E-04 -0.52033142558E-04  0.36216844405E-04  0.17130000000E+03  0.17130000000E+03 0.  1.
      622    1    1    2    0    0 -0.13823597143E-02  0.74211111826E-04  0.39369266490E+01  0.39369451807E+01  0.12000000000E-01 0. -1.
</event>
<event>
 5   0  0.3564000E+09  0.9118800E+02  0.7818608E-02  0.1180000E+00
       11   -1    0    0    0    0  0.00000000000E+00  0.00000000000E+00  0.39999999673E+01  0.40000000000E+01  0.51109989000E-03 0. -1.
     -623   -1    0    0    0    0  0.00000000000E+00  0.00000000000E+00  0.12525980253E-10  0.17130000000E+03  0.17130000000E+03 0. -1.
       11    1    1    2    0    0 -0.98618470987E-03  0.19782418504E-03  0.32371113353E-01  0.32390768708E-01  0.51109989000E-03 0. -1.
     -623    1    1    2    0    0 -0.17887518639E-03  0.15036634280E-02  0.38312297054E-04  0.17130000001E+03  0.17130000000E+03 0. -1.
      622    1    1    2    0    0  0.11650598967E-02 -0.17014876165E-02  0.39675905510E+01  0.39676092339E+01  0.12000000000E-01 0. -1.
</event>
<event>
 5   0  0.3564000E+09  0.9118800E+02  0.7818608E-02  0.1180000E+00
       11   -1    0    0    0    0  0.00000000000E+00  0.00000000000E+00  0.39999999673E+01  0.40000000000E+01  0.51109989000E-03 0.  1.
     -623   -1    0    0    0    0  0.00000000000E+00  0.00000000000E+00  0.12525980253E-10  0.17130000000E+03  0.17130000000E+03 0.  1.
       11    1    1    2    0    0  0.90042404526E-02 -0.19280513990E-02  0.54635247548E+00  0.54643030884E+00  0.51109989000E-03 0.  1.
     -623    1    1    2    0    0  0.37744833260E-05 -0.10921186826E-03  0.11099772326E-03  0.17130000000E+03  0.17130000000E+03 0.  1.
      622    1    1    2    0    0 -0.90080149359E-02  0.20372632673E-02  0.34535364942E+01  0.34535696911E+01  0.12000000000E-01 0.  1.
</event>
<event>
 5   0  0.3564000E+09  0.9118800E+02  0.7818608E-02  0.1180000E+00
       11   -1    0    0    0    0  0.00000000000E+00  0.00000000000E+00  0.39999999673E+01  0.40000000000E+01  0.51109989000E-03 0. -1.
     -623   -1    0    0    0    0  0.00000000000E+00  0.00000000000E+00  0.12525980253E-10  0.17130000000E+03  0.17130000000E+03 0.  1.
       11    1    1    2    0    0  0.16570695634E-02  0.35834223971E-03  0.54677607200E-01  0.54706272398E-01  0.51109989000E-03 0. -1.
     -623    1    1    2    0    0  0.25504309970E-03  0.36377255072E-03  0.47412221628E-04  0.17130000000E+03  0.17130000000E+03 0.  1.
      622    1    1    2    0    0 -0.19121126632E-02 -0.72211479043E-03  0.39452749479E+01  0.39452937270E+01  0.12000000000E-01 0. -1.
</event>
<event>
 5   0  0.3564000E+09  0.9118800E+02  0.7818608E-02  0.1180000E+00
       11   -1    0    0    0    0  0.00000000000E+00  0.00000000000E+00  0.39999999673E+01  0.40000000000E+01  0.51109989000E-03 0.  1.
     -623   -1    0    0    0    0  0.00000000000E+00  0.00000000000E+00  0.12525980253E-10  0.17130000000E+03  0.17130000000E+03 0.  1.
       11    1    1    2    0    0 -0.17019820100E-01  0.46059032475E-02  0.10452983720E+01  0.10454471945E+01  0.51109989000E-03 0.  1.
     -623    1    1    2    0    0  0.47526254381E-03  0.10301558787E-03  0.22323537185E-03  0.17130000000E+03  0.17130000000E+03 0.  1.
      622    1    1    2    0    0  0.16544557556E-01 -0.47089188353E-02  0.29544783586E+01  0.29545528033E+01  0.12000000000E-01 0.  1.
</event>
<event>
 5   0  0.3564000E+09  0.9118800E+02  0.7818608E-02  0.1180000E+00
       11   -1    0    0    0    0  0.00000000000E+00  0.00000000000E+00  0.39999999673E+01  0.40000000000E+01  0.51109989000E-03 0.  1.
     -623   -1    0    0    0    0  0.00000000000E+00  0.00000000000E+00  0.12525980253E-10  0.17130000000E+03  0.17130000000E+03 0.  1.
       11    1    1    2    0    0 -0.99216882397E-03  0.17468217280E-02  0.63236764967E+00  0.63237104721E+00  0.51109989000E-03 0.  1.
     -623    1    1    2    0    0  0.50351097859E-02 -0.39384348065E-03  0.27518096341E-04  0.17130000007E+03  0.17130000000E+03 0.  1.
      622    1    1    2    0    0 -0.40429409619E-02 -0.13529782474E-02  0.33676047996E+01  0.33676288783E+01  0.12000000000E-01 0.  1.
</event>
<event>
 5   0  0.3564000E+09  0.9118800E+02  0.7818608E-02  0.1180000E+00
       11   -1    0    0    0    0  0.00000000000E+00  0.00000000000E+00  0.39999999673E+01  0.40000000000E+01  0.51109989000E-03 0. -1.
     -623   -1    0    0    0    0  0.00000000000E+00  0.00000000000E+00  0.12525980253E-10  0.17130000000E+03  0.17130000000E+03 0. -1.
       11    1    1    2    0    0 -0.36885793349E-03  0.10748292933E-02  0.40340247279E+00  0.40340439709E+00  0.51109989000E-03 0. -1.
     -623    1    1    2    0    0  0.53707577768E-04  0.12444150254E-03  0.22124452004E-04  0.17130000000E+03  0.17130000000E+03 0. -1.
      622    1    1    2    0    0  0.31515035572E-03 -0.11992707959E-02  0.35965753701E+01  0.35965956029E+01  0.12000000000E-01 0. -1.
</event>
<event>
 5   0  0.3564000E+09  0.9118800E+02  0.7818608E-02  0.1180000E+00
       11   -1    0    0    0    0  0.00000000000E+00  0.00000000000E+00  0.39999999673E+01  0.40000000000E+01  0.51109989000E-03 0. -1.
     -623   -1    0    0    0    0  0.00000000000E+00  0.00000000000E+00  0.12525980253E-10  0.17130000000E+03  0.17130000000E+03 0.  1.
       11    1    1    2    0    0  0.18978636710E-02  0.49961369375E-02  0.58714808957E-01  0.58959759864E-01  0.51109989000E-03 0. -1.
     -623    1    1    2    0    0 -0.27343976725E-03 -0.29258995028E-03  0.26632985939E-03  0.17130000000E+03  0.17130000000E+03 0.  1.
      622    1    1    2    0    0 -0.16244239038E-02 -0.47035469872E-02  0.39410188285E+01  0.39410402395E+01  0.12000000000E-01 0. -1.
</event>
<event>
 5   0  0.3564000E+09  0.9118800E+02  0.7818608E-02  0.1180000E+00
       11   -1    0    0    0    0  0.00000000000E+00  0.00000000000E+00  0.39999999673E+01  0.40000000000E+01  0.51109989000E-03 0. -1.
     -623   -1    0    0    0    0  0.00000000000E+00  0.00000000000E+00  0.12525980253E-10  0.17130000000E+03  0.17130000000E+03 0.  1.
       11    1    1    2    0    0  0.11104268083E-02 -0.39639199561E-02  0.20011421673E+00  0.20015720489E+00  0.51109989000E-03 0. -1.
     -623    1    1    2    0    0  0.37989672708E-03  0.89291734864E-03  0.63439725609E-04  0.17130000000E+03  0.17130000000E+03 0.  1.
      622    1    1    2    0    0 -0.14903235354E-02  0.30710026072E-02  0.37998223118E+01  0.37998427932E+01  0.12000000000E-01 0. -1.
</event>
<event>
 5   0  0.3564000E+09  0.9118800E+02  0.7818608E-02  0.1180000E+00
       11   -1    0    0    0    0  0.00000000000E+00  0.00000000000E+00  0.39999999673E+01  0.40000000000E+01  0.51109989000E-03 0.  1.
     -623   -1    0    0    0    0  0.00000000000E+00  0.00000000000E+00  0.12525980253E-10  0.17130000000E+03  0.17130000000E+03 0. -1.
       11    1    1    2    0    0 -0.57164173753E-03 -0.11393457017E-03  0.97758424685E-02  0.98065322326E-02  0.51109989000E-03 0.  1.
     -623    1    1    2    0    0 -0.86189524626E-04 -0.10820878732E-03  0.48761874912E-04  0.17130000000E+03  0.17130000000E+03 0. -1.
      622    1    1    2    0    0  0.65783126227E-03  0.22214335763E-03  0.39901753684E+01  0.39901934731E+01  0.12000000000E-01 0.  1.
</event>
<event>
 5   0  0.3564000E+09  0.9118800E+02  0.7818608E-02  0.1180000E+00
       11   -1    0    0    0    0  0.00000000000E+00  0.00000000000E+00  0.39999999673E+01  0.40000000000E+01  0.51109989000E-03 0.  1.
     -623   -1    0    0    0    0  0.00000000000E+00  0.00000000000E+00  0.12525980253E-10  0.17130000000E+03  0.17130000000E+03 0.  1.
       11    1    1    2    0    0 -0.55030769623E-02  0.85386096862E-03  0.54547583012E+00  0.54550449622E+00  0.51109989000E-03 0.  1.
     -623    1    1    2    0    0  0.71008394047E-04 -0.66897276771E-03  0.53753105626E-04  0.17130000000E+03  0.17130000000E+03 0.  1.
      622    1    1    2    0    0  0.54320685682E-02 -0.18488820092E-03  0.34544703841E+01  0.34544955024E+01  0.12000000000E-01 0.  1.
</event>
<event>
 5   0  0.3564000E+09  0.9118800E+02  0.7818608E-02  0.1180000E+00
       11   -1    0    0    0    0  0.00000000000E+00  0.00000000000E+00  0.39999999673E+01  0.40000000000E+01  0.51109989000E-03 0.  1.
     -623   -1    0    0    0    0  0.00000000000E+00  0.00000000000E+00  0.12525980253E-10  0.17130000000E+03  0.17130000000E+03 0.  1.
       11    1    1    2    0    0 -0.51247607470E-02 -0.34490079892E-02  0.85437449854E+00  0.85439698256E+00  0.51109989000E-03 0.  1.
     -623    1    1    2    0    0 -0.59431670854E-03  0.69770080793E-03  0.51745265472E-04  0.17130000000E+03  0.17130000000E+03 0.  1.
      622    1    1    2    0    0  0.57190774553E-02  0.27513071815E-02  0.31455737222E+01  0.31456030136E+01  0.12000000000E-01 0.  1.
</event>
<event>
 5   0  0.3564000E+09  0.9118800E+02  0.7818608E-02  0.1180000E+00
       11   -1    0    0    0    0  0.00000000000E+00  0.00000000000E+00  0.39999999673E+01  0.40000000000E+01  0.51109989000E-03 0.  1.
     -623   -1    0    0    0    0  0.00000000000E+00  0.00000000000E+00  0.12525980253E-10  0.17130000000E+03  0.17130000000E+03 0.  1.
       11    1    1    2    0    0 -0.24752694047E-02  0.27096939376E-02  0.35002700728E+00  0.35004662039E+00  0.51109989000E-03 0.  1.
     -623    1    1    2    0    0  0.63000351907E-03  0.16501837992E-02  0.42386322475E-04  0.17130000001E+03  0.17130000000E+03 0.  1.
      622    1    1    2    0    0  0.18452658857E-02 -0.43598777366E-02  0.36499305734E+01  0.36499533701E+01  0.12000000000E-01 0.  1.
</event>
<event>
 5   0  0.3564000E+09  0.9118800E+02  0.7818608E-02  0.1180000E+00
       11   -1    0    0    0    0  0.00000000000E+00  0.00000000000E+00  0.39999999673E+01  0.40000000000E+01  0.51109989000E-03 0.  1.
     -623   -1    0    0    0    0  0.00000000000E+00  0.00000000000E+00  0.12525980253E-10  0.17130000000E+03  0.17130000000E+03 0. -1.
       11    1    1    2    0    0  0.89595494754E-03 -0.10115669872E-02  0.36831990497E+00  0.36832273840E+00  0.51109989000E-03 0.  1.
     -623    1    1    2    0    0 -0.30744451376E-03 -0.26960339118E-03  0.22900553372E-04  0.17130000000E+03  0.17130000000E+03 0. -1.
      622    1    1    2    0    0 -0.58851043222E-03  0.12811703797E-02  0.36316571821E+01  0.36316772814E+01  0.12000000000E-01 0.  1.
</event>
<event>
 5   0  0.3564000E+09  0.9118800E+02  0.7818608E-02  0.1180000E+00
       11   -1    0    0    0    0  0.00000000000E+00  0.00000000000E+00  0.39999999673E+01  0.40000000000E+01  0.51109989000E-03 0. -1.
     -623   -1    0    0    0    0  0.00000000000E+00  0.00000000000E+00  0.12525980253E-10  0.17130000000E+03  0.17130000000E+03 0.  1.
       11    1    1    2    0    0 -0.75022956416E-02  0.21275149229E-02  0.14432065386E+00  0.14453208333E+00  0.51109989000E-03 0. -1.
     -623    1    1    2    0    0 -0.70419005208E-03 -0.12657220281E-02  0.23890819840E-03  0.17130000001E+03  0.17130000000E+03 0.  1.
      622    1    1    2    0    0  0.82064856937E-02 -0.86179289475E-03  0.38554404053E+01  0.38554679104E+01  0.12000000000E-01 0. -1.
</event>
<event>
 5   0  0.3564000E+09  0.9118800E+02  0.7818608E-02  0.1180000E+00
       11   -1    0    0    0    0  0.00000000000E+00  0.00000000000E+00  0.39999999673E+01  0.40000000000E+01  0.51109989000E-03 0. -1.
     -623   -1    0    0    0    0  0.00000000000E+00  0.00000000000E+00  0.12525980253E-10  0.17130000000E+03  0.17130000000E+03 0. -1.
       11    1    1    2    0    0 -0.85851682689E-03  0.13886940975E-02  0.31231178631E+00  0.31231647189E+00  0.51109989000E-03 0. -1.
     -623    1    1    2    0    0 -0.32604576216E-03 -0.90990811911E-03  0.24401507899E-04  0.17130000000E+03  0.17130000000E+03 0. -1.
      622    1    1    2    0    0  0.11845625888E-02 -0.47878597903E-03  0.36876637767E+01  0.36876835225E+01  0.12000000000E-01 0. -1.
</event>
<event>
 5   0  0.3564000E+09  0.9118800E+02  0.7818608E-02  0.1180000E+00
       11   -1    0    0    0    0  0.00000000000E+00  0.00000000000E+00  0.39999999673E+01  0.40000000000E+01  0.51109989000E-03 0. -1.
     -623   -1    0    0    0    0  0.00000000000E+00  0.00000000000E+00  0.12525980253E-10  0.17130000000E+03  0.17130000000E+03 0.  1.
       11    1    1    2    0    0  0.98161892084E-03  0.31520027727E-04  0.16751214768E+00  0.16751580646E+00  0.51109989000E-03 0. -1.
     -623    1    1    2    0    0 -0.27467151094E-03 -0.37323399208E-04  0.22478385109E-04  0.17130000000E+03  0.17130000000E+03 0.  1.
      622    1    1    2    0    0 -0.70694740854E-03  0.58033716665E-05  0.38324653612E+01  0.38324842132E+01  0.12000000000E-01 0. -1.
</event>
<event>
 5   0  0.3564000E+09  0.9118800E+02  0.7818608E-02  0.1180000E+00
       11   -1    0    0    0    0  0.00000000000E+00  0.00000000000E+00  0.39999999673E+01  0.40000000000E+01  0.51109989000E-03 0.  1.
     -623   -1    0    0    0    0  0.00000000000E+00  0.00000000000E+00  0.12525980253E-10  0.17130000000E+03  0.17130000000E+03 0. -1.
       11    1    1    2    0    0  0.42774485600E-03 -0.30268983536E-03  0.28967609230E-01  0.28976856176E-01  0.51109989000E-03 0.  1.
     -623    1    1    2    0    0 -0.38269276294E-03 -0.19464707904E-04  0.27359448450E-04  0.17130000000E+03  0.17130000000E+03 0. -1.
      622    1    1    2    0    0 -0.45052093059E-04  0.32215454327E-03  0.39710049987E+01  0.39710231434E+01  0.12000000000E-01 0.  1.
</event>
<event>
 5   0  0.3564000E+09  0.9118800E+02  0.7818608E-02  0.1180000E+00
       11   -1    0    0    0    0  0.00000000000E+00  0.00000000000E+00  0.39999999673E+01  0.40000000000E+01  0.51109989000E-03 0. -1.
     -623   -1    0    0    0    0  0.00000000000E+00  0.00000000000E+00  0.12525980253E-10  0.17130000000E+03  0.17130000000E+03 0. -1.
       11    1    1    2    0    0 -0.11888784768E-02  0.87433123425E-03  0.54432130456E-01  0.54454530889E-01  0.51109989000E-03 0. -1.
     -623    1    1    2    0    0 -0.93139663342E-03 -0.16213802089E-02  0.41266900865E-04  0.17130000001E+03  0.17130000000E+03 0. -1.
      622    1    1    2    0    0  0.21202751103E-02  0.74704897467E-03  0.39455265700E+01  0.39455454589E+01  0.12000000000E-01 0. -1.
</event>
<event>
 5   0  0.3564000E+09  0.9118800E+02  0.7818608E-02  0.1180000E+00
       11   -1    0    0    0    0  0.00000000000E+00  0.00000000000E+00  0.39999999673E+01  0.40000000000E+01  0.51109989000E-03 0.  1.
     -623   -1    0    0    0    0  0.00000000000E+00  0.00000000000E+00  0.12525980253E-10  0.17130000000E+03  0.17130000000E+03 0. -1.
       11    1    1    2    0    0 -0.12610960810E-01 -0.18363164948E-03  0.59564953094E-01  0.60887723831E-01  0.51109989000E-03 0.  1.
     -623    1    1    2    0    0  0.11358120624E-01 -0.29211461019E-03  0.13416263903E-02  0.17130000038E+03  0.17130000000E+03 0. -1.
      622    1    1    2    0    0  0.12528401855E-02  0.47574625968E-03  0.39390933880E+01  0.39391118942E+01  0.12000000000E-01 0.  0.
</event>
<event>
 5   0  0.3564000E+09  0.9118800E+02  0.7818608E-02  0.1180000E+00
       11   -1    0    0    0    0  0.00000000000E+00  0.00000000000E+00  0.39999999673E+01  0.40000000000E+01  0.51109989000E-03 0. -1.
     -623   -1    0    0    0    0  0.00000000000E+00  0.00000000000E+00  0.12525980253E-10  0.17130000000E+03  0.17130000000E+03 0. -1.
       11    1    1    2    0    0 -0.61043780136E-02  0.90914685427E-04  0.11477259143E+00  0.11493598507E+00  0.51109989000E-03 0. -1.
     -623    1    1    2    0    0 -0.70632977914E-02  0.21375471478E-02  0.20500658314E-03  0.17130000016E+03  0.17130000000E+03 0. -1.
      622    1    1    2    0    0  0.13167675806E-01 -0.22284618336E-02  0.38850223702E+01  0.38850638567E+01  0.12000000000E-01 0. -1.
</event>
<event>
 5   0  0.3564000E+09  0.9118800E+02  0.7818608E-02  0.1180000E+00
       11   -1    0    0    0    0  0.00000000000E+00  0.00000000000E+00  0.39999999673E+01  0.40000000000E+01  0.51109989000E-03 0. -1.
     -623   -1    0    0    0    0  0.00000000000E+00  0.00000000000E+00  0.12525980253E-10  0.17130000000E+03  0.17130000000E+03 0. -1.
       11    1    1    2    0    0 -0.28793976924E-02 -0.96948519799E-02  0.52703343164E+00  0.52713070521E+00  0.51109989000E-03 0. -1.
     -623    1    1    2    0    0  0.97190779460E-05 -0.86981562600E-03  0.13523032557E-03  0.17130000000E+03  0.17130000000E+03 0. -1.
      622    1    1    2    0    0  0.28696786144E-02  0.10564667606E-01  0.34728313075E+01  0.34728692947E+01  0.12000000000E-01 0. -1.
</event>
<event>
 5   0  0.3564000E+09  0.9118800E+02  0.7818608E-02  0.1180000E+00
       11   -1    0    0    0    0  0.00000000000E+00  0.00000000000E+00  0.39999999673E+01  0.40000000000E+01  0.51109989000E-03 0. -1.
     -623   -1    0    0    0    0  0.00000000000E+00  0.00000000000E+00  0.12525980253E-10  0.17130000000E+03  0.17130000000E+03 0. -1.
       11    1    1    2    0    0 -0.27706994076E-03  0.10970537903E-02  0.13162683819E-01  0.13221110512E-01  0.51109989000E-03 0. -1.
     -623    1    1    2    0    0 -0.13089304603E-02 -0.12225824777E-02  0.76780612664E-04  0.17130000001E+03  0.17130000000E+03 0. -1.
      622    1    1    2    0    0  0.15860004017E-02  0.12552868801E-03  0.39867605050E+01  0.39867788822E+01  0.12000000000E-01 0. -1.
</event>
<event>
 5   0  0.3564000E+09  0.9118800E+02  0.7818608E-02  0.1180000E+00
       11   -1    0    0    0    0  0.00000000000E+00  0.00000000000E+00  0.39999999673E+01  0.40000000000E+01  0.51109989000E-03 0. -1.
     -623   -1    0    0    0    0  0.00000000000E+00  0.00000000000E+00  0.12525980253E-10  0.17130000000E+03  0.17130000000E+03 0.  1.
       11    1    1    2    0    0  0.17203385227E-02  0.27386017377E-02  0.39127810395E+00  0.39129180333E+00  0.51109989000E-03 0. -1.
     -623    1    1    2    0    0 -0.29201593325E-04  0.40751143659E-04  0.35085111683E-04  0.17130000000E+03  0.17130000000E+03 0.  1.
      622    1    1    2    0    0 -0.16911369294E-02 -0.27793528813E-02  0.36086867783E+01  0.36087081967E+01  0.12000000000E-01 0.  0.
</event>
<event>
 5   0  0.3564000E+09  0.9118800E+02  0.7818608E-02  0.1180000E+00
       11   -1    0    0    0    0  0.00000000000E+00  0.00000000000E+00  0.39999999673E+01  0.40000000000E+01  0.51109989000E-03 0.  1.
     -623   -1    0    0    0    0  0.00000000000E+00  0.00000000000E+00  0.12525980253E-10  0.17130000000E+03  0.17130000000E+03 0. -1.
       11    1    1    2    0    0  0.14605071336E-02  0.22862596389E-02  0.31570724095E+00  0.31571931090E+00  0.51109989000E-03 0.  1.
     -623    1    1    2    0    0  0.27618667018E-02 -0.12080259905E-01  0.47465519179E-04  0.17130000045E+03  0.17130000000E+03 0. -1.
      622    1    1    2    0    0 -0.42223738432E-02  0.97940002998E-02  0.36842452722E+01  0.36842802521E+01  0.12000000000E-01 0.  1.
</event>
<event>
 5   0  0.3564000E+09  0.9118800E+02  0.7818608E-02  0.1180000E+00
       11   -1    0    0    0    0  0.00000000000E+00  0.00000000000E+00  0.39999999673E+01  0.40000000000E+01  0.51109989000E-03 0.  1.
     -623   -1    0    0    0    0  0.00000000000E+00  0.00000000000E+00  0.12525980253E-10  0.17130000000E+03  0.17130000000E+03 0.  1.
       11    1    1    2    0    0 -0.12225177885E-02 -0.51672124445E-02  0.45559608269E+00  0.45562731088E+00  0.51109989000E-03 0.  1.
     -623    1    1    2    0    0  0.82006669725E-03  0.93228882320E-04  0.55166222300E-04  0.17130000000E+03  0.17130000000E+03 0.  1.
      622    1    1    2    0    0  0.40245109129E-03  0.50739835622E-02  0.35443487184E+01  0.35443726871E+01  0.12000000000E-01 0.  1.
</event>
<event>
 5   0  0.3564000E+09  0.9118800E+02  0.7818608E-02  0.1180000E+00
       11   -1    0    0    0    0  0.00000000000E+00  0.00000000000E+00  0.39999999673E+01  0.40000000000E+01  0.51109989000E-03 0.  1.
     -623   -1    0    0    0    0  0.00000000000E+00  0.00000000000E+00  0.12525980253E-10  0.17130000000E+03  0.17130000000E+03 0.  1.
       11    1    1    2    0    0 -0.27904752016E-03 -0.39528606681E-03  0.52123108465E+00  0.52123155982E+00  0.51109989000E-03 0.  1.
     -623    1    1    2    0    0  0.49588510584E-03  0.45522551399E-03  0.21148164345E-04  0.17130000000E+03  0.17130000000E+03 0.  1.
      622    1    1    2    0    0 -0.21683758676E-03 -0.59939448176E-04  0.34787477432E+01  0.34787684475E+01  0.12000000000E-01 0.  1.
</event>
<event>
 5   0  0.3564000E+09  0.9118800E+02  0.7818608E-02  0.1180000E+00
       11   -1    0    0    0    0  0.00000000000E+00  0.00000000000E+00  0.39999999673E+01  0.40000000000E+01  0.51109989000E-03 0. -1.
     -623   -1    0    0    0    0  0.00000000000E+00  0.00000000000E+00  0.12525980253E-10  0.17130000000E+03  0.17130000000E+03 0.  1.
       11    1    1    2    0    0 -0.52398155019E-04 -0.72914354342E-03  0.43089424588E-01  0.43098655765E-01  0.51109989000E-03 0. -1.
     -623    1    1    2    0    0 -0.88924529066E-03 -0.17169970806E-03  0.27611621012E-04  0.17130000000E+03  0.17130000000E+03 0.  1.
      622    1    1    2    0    0  0.94164344568E-03  0.90084325148E-03  0.39568829312E+01  0.39569013418E+01  0.12000000000E-01 0. -1.
</event>
<event>
 5   0  0.3564000E+09  0.9118800E+02  0.7818608E-02  0.1180000E+00
       11   -1    0    0    0    0  0.00000000000E+00  0.00000000000E+00  0.39999999673E+01  0.40000000000E+01  0.51109989000E-03 0. -1.
     -623   -1    0    0    0    0  0.00000000000E+00  0.00000000000E+00  0.12525980253E-10  0.17130000000E+03  0.17130000000E+03 0. -1.
       11    1    1    2    0    0  0.16237926330E-02  0.90921422948E-03  0.22693330988E-01  0.22775246815E-01  0.51109989000E-03 0. -1.
     -623    1    1    2    0    0  0.63738078789E-04 -0.19479358895E-04  0.10044387616E-03  0.17130000000E+03  0.17130000000E+03 0. -1.
      622    1    1    2    0    0 -0.16875307117E-02 -0.88973487059E-03  0.39772061916E+01  0.39772247522E+01  0.12000000000E-01 0. -1.
</event>
<event>
 5   0  0.3564000E+09  0.9118800E+02  0.7818608E-02  0.1180000E+00
       11   -1    0    0    0    0  0.00000000000E+00  0.00000000000E+00  0.39999999673E+01  0.40000000000E+01  0.51109989000E-03 0.  1.
     -623   -1    0    0    0    0  0.00000000000E+00  0.00000000000E+00  0.12525980253E-10  0.17130000000E+03  0.17130000000E+03 0.  1.
       11    1    1    2    0    0  0.51729507382E-03 -0.55115687362E-02  0.18159253199E+00  0.18167760974E+00  0.51109989000E-03 0.  1.
     -623    1    1    2    0    0 -0.19738756579E-03  0.11726473093E-03  0.10772559065E-03  0.17130000000E+03  0.17130000000E+03 0.  1.
      622    1    1    2    0    0 -0.31990750803E-03  0.53943040053E-02  0.38182997098E+01  0.38183223901E+01  0.12000000000E-01 0.  1.
</event>
<event>
 5   0  0.3564000E+09  0.9118800E+02  0.7818608E-02  0.1180000E+00
       11   -1    0    0    0    0  0.00000000000E+00  0.00000000000E+00  0.39999999673E+01  0.40000000000E+01  0.51109989000E-03 0.  1.
     -623   -1    0    0    0    0  0.00000000000E+00  0.00000000000E+00  0.12525980253E-10  0.17130000000E+03  0.17130000000E+03 0. -1.
       11    1    1    2    0    0  0.75579993187E-03  0.11679162438E-03  0.18884644227E+00  0.18884868242E+00  0.51109989000E-03 0.  1.
     -623    1    1    2    0    0  0.96687323337E-03  0.15444040875E-02  0.21860554241E-04  0.17130000001E+03  0.17130000000E+03 0. -1.
      622    1    1    2    0    0 -0.17226731652E-02 -0.16611957119E-02  0.38111316645E+01  0.38111513079E+01  0.12000000000E-01 0.  1.
</event>
<event>
 5   0  0.3564000E+09  0.9118800E+02  0.7818608E-02  0.1180000E+00
       11   -1    0    0    0    0  0.00000000000E+00  0.00000000000E+00  0.39999999673E+01  0.40000000000E+01  0.51109989000E-03 0. -1.
     -623   -1    0    0    0    0  0.00000000000E+00  0.00000000000E+00  0.12525980253E-10  0.17130000000E+03  0.17130000000E+03 0.  1.
       11    1    1    2    0    0  0.16468379375E-02 -0.74433683357E-03  0.73286020946E-02  0.75654308716E-02  0.51109989000E-03 0. -1.
     -623    1    1    2    0    0 -0.21249136803E-03 -0.14737673816E-03  0.25518791197E-03  0.17130000000E+03  0.17130000000E+03 0.  1.
      622    1    1    2    0    0 -0.14343465694E-02  0.89171357176E-03  0.39924161782E+01  0.39924345696E+01  0.12000000000E-01 0. -1.
</event>
<event>
 5   0  0.3564000E+09  0.9118800E+02  0.7818608E-02  0.1180000E+00
       11   -1    0    0    0    0  0.00000000000E+00  0.00000000000E+00  0.39999999673E+01  0.40000000000E+01  0.51109989000E-03 0.  1.
     -623   -1    0    0    0    0  0.00000000000E+00  0.00000000000E+00  0.12525980253E-10  0.17130000000E+03  0.17130000000E+03 0.  1.
       11    1    1    2    0    0 -0.13866090578E-02 -0.13820613783E-02  0.22341659803E-01  0.22433095288E-01  0.51109989000E-03 0.  1.
     -623    1    1    2    0    0  0.17180804055E-02  0.84849530668E-03  0.10956475541E-03  0.17130000001E+03  0.17130000000E+03 0.  1.
      622    1    1    2    0    0 -0.33147134861E-03  0.53356607113E-03  0.39775487449E+01  0.39775668961E+01  0.12000000000E-01 0.  1.
</event>
<event>
 5   0  0.3564000E+09  0.9118800E+02  0.7818608E-02  0.1180000E+00
       11   -1    0    0    0    0  0.00000000000E+00  0.00000000000E+00  0.39999999673E+01  0.40000000000E+01  0.51109989000E-03 0.  1.
     -623   -1    0    0    0    0  0.00000000000E+00  0.00000000000E+00  0.12525980253E-10  0.17130000000E+03  0.17130000000E+03 0. -1.
       11    1    1    2    0    0 -0.20144257867E-02  0.14502843270E-02  0.56746648757E+00  0.56747214643E+00  0.51109989000E-03 0.  1.
     -623    1    1    2    0    0  0.10122856001E-03  0.50377319184E-04  0.27463341671E-04  0.17130000000E+03  0.17130000000E+03 0. -1.
      622    1    1    2    0    0  0.19131972266E-02 -0.15006616462E-02  0.34325060213E+01  0.34325278584E+01  0.12000000000E-01 0.  1.
</event>
<event>
 5   0  0.3564000E+09  0.9118800E+02  0.7818608E-02  0.1180000E+00
       11   -1    0    0    0    0  0.00000000000E+00  0.00000000000E+00  0.39999999673E+01  0.40000000000E+01  0.51109989000E-03 0.  1.
     -623   -1    0    0    0    0  0.00000000000E+00  0.00000000000E+00  0.12525980253E-10  0.17130000000E+03  0.17130000000E+03 0.  1.
       11    1    1    2    0    0  0.13059795400E-02 -0.44909083531E-03  0.13458453844E-01  0.13538776462E-01  0.51109989000E-03 0.  1.
     -623    1    1    2    0    0  0.75418418335E-03  0.69361673595E-03  0.98894081918E-04  0.17130000000E+03  0.17130000000E+03 0.  1.
      622    1    1    2    0    0 -0.20601637240E-02 -0.24452590123E-03  0.39864426229E+01  0.39864612239E+01  0.12000000000E-01 0.  1.
</event>
<event>
 5   0  0.3564000E+09  0.9118800E+02  0.7818608E-02  0.1180000E+00
       11   -1    0    0    0    0  0.00000000000E+00  0.00000000000E+00  0.39999999673E+01  0.40000000000E+01  0.51109989000E-03 0. -1.
     -623   -1    0    0    0    0  0.00000000000E+00  0.00000000000E+00  0.12525980253E-10  0.17130000000E+03  0.17130000000E+03 0.  1.
       11    1    1    2    0    0  0.10060551604E-02  0.47296646024E-03  0.21412317938E+00  0.21412667516E+00  0.51109989000E-03 0. -1.
     -623    1    1    2    0    0 -0.89755459945E-03  0.36786964500E-03  0.22578933972E-04  0.17130000000E+03  0.17130000000E+03 0.  1.
      622    1    1    2    0    0 -0.10850055708E-03 -0.84083610685E-03  0.37858542265E+01  0.37858733396E+01  0.12000000000E-01 0. -1.
</event>
<event>
 5   0  0.3564000E+09  0.9118800E+02  0.7818608E-02  0.1180000E+00
       11   -1    0    0    0    0  0.00000000000E+00  0.00000000000E+00  0.39999999673E+01  0.40000000000E+01  0.51109989000E-03 0. -1.
     -623   -1    0    0    0    0  0.00000000000E+00  0.00000000000E+00  0.12525980253E-10  0.17130000000E+03  0.17130000000E+03 0.  1.
       11    1    1    2    0    0  0.13712372464E-02 -0.12315939451E-02  0.24862119752E-01  0.24935583717E-01  0.51109989000E-03 0. -1.
     -623    1    1    2    0    0  0.61992053681E-03  0.26219110553E-03  0.92162531999E-04  0.17130000000E+03  0.17130000000E+03 0.  1.
      622    1    1    2    0    0 -0.19911577832E-02  0.96940283961E-03  0.39750456851E+01  0.39750644149E+01  0.12000000000E-01 0. -1.
</event>
<event>
 5   0  0.3564000E+09  0.9118800E+02  0.7818608E-02  0.1180000E+00
       11   -1    0    0    0    0  0.00000000000E+00  0.00000000000E+00  0.39999999673E+01  0.40000000000E+01  0.51109989000E-03 0. -1.
     -623   -1    0    0    0    0  0.00000000000E+00  0.00000000000E+00  0.12525980253E-10  0.17130000000E+03  0.17130000000E+03 0.  1.
       11    1    1    2    0    0 -0.83747843144E-02  0.31603671202E-02  0.93723160804E+00  0.93727449196E+00  0.51109989000E-03 0. -1.
     -623    1    1    2    0    0  0.18052618672E-02 -0.15598376797E-04  0.75029736398E-04  0.17130000001E+03  0.17130000000E+03 0.  1.
      622    1    1    2    0    0  0.65695224480E-02 -0.31447687434E-02  0.30626933279E+01  0.30627254969E+01  0.12000000000E-01 0.  0.
</event>
<event>
 5   0  0.3564000E+09  0.9118800E+02  0.7818608E-02  0.1180000E+00
       11   -1    0    0    0    0  0.00000000000E+00  0.00000000000E+00  0.39999999673E+01  0.40000000000E+01  0.51109989000E-03 0. -1.
     -623   -1    0    0    0    0  0.00000000000E+00  0.00000000000E+00  0.12525980253E-10  0.17130000000E+03  0.17130000000E+03 0.  1.
       11    1    1    2    0    0  0.36080741061E-02 -0.77243804173E-02  0.45219381022E+00  0.45227446033E+00  0.51109989000E-03 0. -1.
     -623    1    1    2    0    0 -0.19966869193E-03 -0.20601881608E-03  0.11141345861E-03  0.17130000000E+03  0.17130000000E+03 0.  1.
      622    1    1    2    0    0 -0.34084054141E-02  0.79303992334E-02  0.35476947437E+01  0.35477255394E+01  0.12000000000E-01 0. -1.
</event>
<event>
 5   0  0.3564000E+09  0.9118800E+02  0.7818608E-02  0.1180000E+00
       11   -1    0    0    0    0  0.00000000000E+00  0.00000000000E+00  0.39999999673E+01  0.40000000000E+01  0.51109989000E-03 0.  1.
     -623   -1    0    0    0    0  0.00000000000E+00  0.00000000000E+00  0.12525980253E-10  0.17130000000E+03  0.17130000000E+03 0.  1.
       11    1    1    2    0    0  0.27868501021E-02 -0.37437369529E-03  0.33129367106E+00  0.33130599813E+00  0.51109989000E-03 0.  1.
     -623    1    1    2    0    0 -0.29593534676E-02 -0.49011112494E-02  0.35812751737E-04  0.17130000010E+03  0.17130000000E+03 0.  1.
      622    1    1    2    0    0  0.17250336550E-03  0.52754849447E-02  0.36686704835E+01  0.36686939062E+01  0.12000000000E-01 0.  1.
</event>
<event>
 5   0  0.3564000E+09  0.9118800E+02  0.7818608E-02  0.1180000E+00
       11   -1    0    0    0    0  0.00000000000E+00  0.00000000000E+00  0.39999999673E+01  0.40000000000E+01  0.51109989000E-03 0. -1.
     -623   -1    0    0    0    0  0.00000000000E+00  0.00000000000E+00  0.12525980253E-10  0.17130000000E+03  0.17130000000E+03 0.  1.
       11    1    1    2    0    0 -0.27684480988E-02 -0.11279626693E-01  0.79951711756E+00  0.79960163630E+00  0.51109989000E-03 0. -1.
     -623    1    1    2    0    0 -0.41748086054E-03  0.40294356278E-03  0.12705280003E-03  0.17130000000E+03  0.17130000000E+03 0.  1.
      622    1    1    2    0    0  0.31859289594E-02  0.10876683130E-01  0.32003557970E+01  0.32003983627E+01  0.12000000000E-01 0. -1.
</event>
<event>
 5   0  0.3564000E+09  0.9118800E+02  0.7818608E-02  0.1180000E+00
       11   -1    0    0    0    0  0.00000000000E+00  0.00000000000E+00  0.39999999673E+01  0.40000000000E+01  0.51109989000E-03 0.  1.
     -623   -1    0    0    0    0  0.00000000000E+00  0.00000000000E+00  0.12525980253E-10  0.17130000000E+03  0.17130000000E+03 0.  1.
       11    1    1    2    0    0  0.52827127867E-03 -0.15909847321E-02  0.14527315741E+00  0.14528372858E+00  0.51109989000E-03 0.  1.
     -623    1    1    2    0    0 -0.13338902007E-02  0.98869041616E-03  0.29356281123E-04  0.17130000001E+03  0.17130000000E+03 0.  1.
      622    1    1    2    0    0  0.80561892265E-03  0.60229431541E-03  0.38546974557E+01  0.38547162654E+01  0.12000000000E-01 0.  1.
</event>
<event>
 5   0  0.3564000E+09  0.9118800E+02  0.7818608E-02  0.1180000E+00
       11   -1    0    0    0    0  0.00000000000E+00  0.00000000000E+00  0.39999999673E+01  0.40000000000E+01  0.51109989000E-03 0.  1.
     -623   -1    0    0    0    0  0.00000000000E+00  0.00000000000E+00  0.12525980253E-10  0.17130000000E+03  0.17130000000E+03 0. -1.
       11    1    1    2    0    0 -0.36895142986E-02 -0.30963629124E-02  0.60151687166E+00  0.60153637305E+00  0.51109989000E-03 0.  1.
     -623    1    1    2    0    0  0.83528843556E-02  0.80859075294E-02  0.47911704467E-04  0.17130000039E+03  0.17130000000E+03 0. -1.
      622    1    1    2    0    0 -0.46633700570E-02 -0.49895446170E-02  0.33984351840E+01  0.33984632325E+01  0.12000000000E-01 0.  1.
</event>
<event>
 5   0  0.3564000E+09  0.9118800E+02  0.7818608E-02  0.1180000E+00
       11   -1    0    0    0    0  0.00000000000E+00  0.00000000000E+00  0.39999999673E+01  0.40000000000E+01  0.51109989000E-03 0. -1.
     -623   -1    0    0    0    0  0.00000000000E+00  0.00000000000E+00  0.12525980253E-10  0.17130000000E+03  0.17130000000E+03 0.  1.
       11    1    1    2    0    0  0.82813306751E-03  0.71149236786E-02  0.41331563521E+00  0.41337801523E+00  0.51109989000E-03 0. -1.
     -623    1    1    2    0    0 -0.27969976519E-03 -0.25140298844E-03  0.89031612990E-04  0.17130000000E+03  0.17130000000E+03 0.  1.
      622    1    1    2    0    0 -0.54843330232E-03 -0.68635206902E-02  0.35865953005E+01  0.35866219843E+01  0.12000000000E-01 0.  0.
</event>
<event>
 5   0  0.3564000E+09  0.9118800E+02  0.7818608E-02  0.1180000E+00
       11   -1    0    0    0    0  0.00000000000E+00  0.00000000000E+00  0.39999999673E+01  0.40000000000E+01  0.51109989000E-03 0. -1.
     -623   -1    0    0    0    0  0.00000000000E+00  0.00000000000E+00  0.12525980253E-10  0.17130000000E+03  0.17130000000E+03 0. -1.
       11    1    1    2    0    0  0.14281352816E-02 -0.10808533497E-02  0.49378620882E-01  0.49413735308E-01  0.51109989000E-03 0. -1.
     -623    1    1    2    0    0 -0.12744366029E-03 -0.69440975673E-04  0.53688628478E-04  0.17130000000E+03  0.17130000000E+03 0. -1.
      622    1    1    2    0    0 -0.13006916213E-02  0.11502943254E-02  0.39505676578E+01  0.39505862646E+01  0.12000000000E-01 0. -1.
</event>
<event>
 5   0  0.3564000E+09  0.9118800E+02  0.7818608E-02  0.1180000E+00
       11   -1    0    0    0    0  0.00000000000E+00  0.00000000000E+00  0.39999999673E+01  0.40000000000E+01  0.51109989000E-03 0. -1.
     -623   -1    0    0    0    0  0.00000000000E+00  0.00000000000E+00  0.12525980253E-10  0.17130000000E+03  0.17130000000E+03 0.  1.
       11    1    1    2    0    0  0.11961706411E-02 -0.24808919635E-01  0.47751350100E+00  0.47815930209E+00  0.51109989000E-03 0. -1.
     -623    1    1    2    0    0 -0.28636576827E-02  0.29860006099E-02  0.73427204952E-03  0.17130000005E+03  0.17130000000E+03 0.  1.
      622    1    1    2    0    0  0.16674870415E-02  0.21822919026E-01  0.35217521941E+01  0.35218406461E+01  0.12000000000E-01 0. -1.
</event>
<event>
 5   0  0.3564000E+09  0.9118800E+02  0.7818608E-02  0.1180000E+00
       11   -1    0    0    0    0  0.00000000000E+00  0.00000000000E+00  0.39999999673E+01  0.40000000000E+01  0.51109989000E-03 0. -1.
     -623   -1    0    0    0    0  0.00000000000E+00  0.00000000000E+00  0.12525980253E-10  0.17130000000E+03  0.17130000000E+03 0. -1.
       11    1    1    2    0    0  0.35612310723E-03 -0.32665724921E-02  0.13819070783E+00  0.13823071392E+00  0.51109989000E-03 0. -1.
     -623    1    1    2    0    0  0.14308935839E-02  0.15864759439E-02  0.59410074914E-04  0.17130000001E+03  0.17130000000E+03 0. -1.
      622    1    1    2    0    0 -0.17870166912E-02  0.16800965481E-02  0.38617498495E+01  0.38617692727E+01  0.12000000000E-01 0. -1.
</event>
<event>
 5   0  0.3564000E+09  0.9118800E+02  0.7818608E-02  0.1180000E+00
       11   -1    0    0    0    0  0.00000000000E+00  0.00000000000E+00  0.39999999673E+01  0.40000000000E+01  0.51109989000E-03 0.  1.
     -623   -1    0    0    0    0  0.00000000000E+00  0.00000000000E+00  0.12525980253E-10  0.17130000000E+03  0.17130000000E+03 0. -1.
       11    1    1    2    0    0 -0.73025688390E-03 -0.25897700824E-03  0.27706286041E-01  0.27721829909E-01  0.51109989000E-03 0.  1.
     -623    1    1    2    0    0  0.80739035643E-04 -0.35194765007E-03  0.33737353761E-04  0.17130000000E+03  0.17130000000E+03 0. -1.
      622    1    1    2    0    0  0.64951784850E-03  0.61092465724E-03  0.39722599318E+01  0.39722781575E+01  0.12000000000E-01 0.  1.
</event>
<event>
 5   0  0.3564000E+09  0.9118800E+02  0.7818608E-02  0.1180000E+00
       11   -1    0    0    0    0  0.00000000000E+00  0.00000000000E+00  0.39999999673E+01  0.40000000000E+01  0.51109989000E-03 0.  1.
     -623   -1    0    0    0    0  0.00000000000E+00  0.00000000000E+00  0.12525980253E-10  0.17130000000E+03  0.17130000000E+03 0.  1.
       11    1    1    2    0    0  0.18542803011E-03 -0.52551129587E-03  0.31804750040E-01  0.31813737472E-01  0.51109989000E-03 0.  1.
     -623    1    1    2    0    0  0.56149744262E-04 -0.46248570538E-04  0.27147704811E-04  0.17130000000E+03  0.17130000000E+03 0.  1.
      622    1    1    2    0    0 -0.24157777438E-03  0.57175986640E-03  0.39681680696E+01  0.39681862625E+01  0.12000000000E-01 0.  1.
</event>
<event>
 5   0  0.3564000E+09  0.9118800E+02  0.7818608E-02  0.1180000E+00
       11   -1    0    0    0    0  0.00000000000E+00  0.00000000000E+00  0.39999999673E+01  0.40000000000E+01  0.51109989000E-03 0. -1.
     -623   -1    0    0    0    0  0.00000000000E+00  0.00000000000E+00  0.12525980253E-10  0.17130000000E+03  0.17130000000E+03 0.  1.
       11    1    1    2    0    0  0.30037621907E-03 -0.13920660995E-02  0.33766874967E+00  0.33767213951E+00  0.51109989000E-03 0. -1.
     -623    1    1    2    0    0 -0.56613575488E-03  0.18773911086E-03  0.23225579170E-04  0.17130000000E+03  0.17130000000E+03 0.  1.
      622    1    1    2    0    0  0.26575953528E-03  0.12043269888E-02  0.36623079883E+01  0.36623278556E+01  0.12000000000E-01 0. -1.
</event>
<event>
 5   0  0.3564000E+09  0.9118800E+02  0.7818608E-02  0.1180000E+00
       11   -1    0    0    0    0  0.00000000000E+00  0.00000000000E+00  0.39999999673E+01  0.40000000000E+01  0.51109989000E-03 0. -1.
     -623   -1    0    0    0    0  0.00000000000E+00  0.00000000000E+00  0.12525980253E-10  0.17130000000E+03  0.17130000000E+03 0. -1.
       11    1    1    2    0    0 -0.69949698437E-02  0.91578457798E-02  0.10955370630E+01  0.10955977882E+01  0.51109989000E-03 0. -1.
     -623    1    1    2    0    0  0.11432741232E-01 -0.87609938707E-02  0.89505623329E-04  0.17130000061E+03  0.17130000000E+03 0. -1.
      622    1    1    2    0    0 -0.44377714023E-02 -0.39685189824E-03  0.29043734036E+01  0.29044016112E+01  0.12000000000E-01 0. -1.
</event>
<event>
 5   0  0.3564000E+09  0.9118800E+02  0.7818608E-02  0.1180000E+00
       11   -1    0    0    0    0  0.00000000000E+00  0.00000000000E+00  0.39999999673E+01  0.40000000000E+01  0.51109989000E-03 0.  1.
     -623   -1    0    0    0    0  0.00000000000E+00  0.00000000000E+00  0.12525980253E-10  0.17130000000E+03  0.17130000000E+03 0. -1.
       11    1    1    2    0    0  0.48733975142E-02 -0.10578961032E-02  0.22914736648E+00  0.22920219444E+00  0.51109989000E-03 0.  1.
     -623    1    1    2    0    0 -0.63872279659E-04  0.12236138146E-03  0.77072804849E-04  0.17130000000E+03  0.17130000000E+03 0. -1.
      622    1    1    2    0    0 -0.48095252345E-02  0.93553472177E-03  0.37707755281E+01  0.37707978055E+01  0.12000000000E-01 0.  1.
</event>
</LesHouchesEvents>
