<LesHouchesEvents version="1.0">
<header>
<!--
#*********************************************************************
#                                                                    *
#                       MadGraph/MadEvent                            *
#                                                                    *
#                      The new web generation                        *
#                                                                    *
#                   http://madgraph.hep.uiuc.edu                     *
#                   http://madgraph.phys.ucl.ac.be                   *
#                   http://madgraph.roma2.infn.it                    *
#                                                                    *
#            CP3 team                      Tim Stelzer               *
#      Universite de Louvain          University of Illinois         *
#                                                                    *
#....................................................................*
#                                                                    *
# This file contains all the information necessary to reproduce      *
# the events generated:                                              *
#                                                                    *
# 1. software version                                                *
# 2. proc_card.dat      : code generation info including model       *
# 3. param_card.dat     : model primary parameters in the LH format  *
# 4. run_card.dat       : running parameters (collider and cuts)     *
# 5. pythia_card.dat    : present only in the pythia event file      *
# 6. pgs_card.dat       : present only in the pgs event file         *
#                                                                    *
#                                                                    *
#*********************************************************************
-->
<MGVersion>
# MG/ME version    : 4.4.17
# madgraph version : 4.4.2
# template version : 2.4.8
# helas version    : 3.5
# model version    : usrmod_1.0.4
</MGVersion>
<MGProcCard>
#*********************************************************************
#                        MadGraph/MadEvent                           *
#                   http://madgraph.hep.uiuc.edu                     *
#                                                                    *
#                          proc_card.dat                             *
#                                                                    *
# This file is used to generate the code for a specific process.     *
# Some notation/conventions:                                         *
#                                                                    *
# 0. Do not modify the TAGS and their order.                         *
# 1. hash/pound is a comment.                                        *
# 2. The number after the @ is used as an identifier for the class   *
#    of processes. It can be any positive integer.                   *
# 3. The number of lines for the max couplings depends on how many   *
#    different classes of couplings are present in the model         *
#    In the SM these are just two: QED (which include EW) and QCD    *
# 4. Write "end_coup" after  the couplings list,                     *
#    to tell MG that the couplings input is over.                    *
# 5. Write "done" after the proc list to                             *
#    to tell MG that the proc input is over.                         *
# 6. Some model names available at present are:                      *
#    sm     =  Standard Model                                        *
#    smckm =  Standard Model with Cabibbo matrix                     *
#    mssm   =  Minimal Supersymmetric Standard Model                 *
#    2hdm   =  Generic Two Higgs Doublet model                       *
#    heft   =  Higgs EFT (+Standard Model)                           *
#    usrmod =  User Model                                            *
# 7. Don't leave spaces between the particles name in the            *
#    definition of the multiparticles.                               *
#*********************************************************************
#*********************************************************************
# Process(es) requested : mg2 input                                  *
#*********************************************************************
# Begin PROCESS # This is TAG. Do not modify this line
e- N+ > e- N+ x      # Radiative
QCD=0             # Max QCD couplings
QED=1             # Max QED couplings
QFD=0 
QND=1
QWD=9
QDS=2
end_coup           # End the couplings input
done               # this tells MG there are no more procs
# End PROCESS  # This is TAG. Do not modify this line
#*********************************************************************
# Model information                                                  *
#*********************************************************************
# Begin MODEL  # This is TAG. Do not modify this line
fixedAP2     
# End   MODEL  # This is TAG. Do not modify this line
#*********************************************************************
# Start multiparticle definitions                                    *
#*********************************************************************
# Begin MULTIPARTICLES # This is TAG. Do not modify this line
P uu~cc~dd~ss~gf+f-
J uu~cc~dd~ss~gf+f-
L+ e+mu+
L- e-mu-
vl vevm
vl~ ve~vm~
# End  MULTIPARTICLES # This is TAG. Do not modify this line
</MGProcCard>
<slha>
#*********************************************************************
#                        MadGraph/MadEvent                           *
#                   http://madgraph.hep.uiuc.edu                     *
#                                                                    *
#                         param_card.dat                             *
#                                                                    *
#   Les Houches friendly file for the SM parameters of MadGraph      *
#        Spectrum and decay widths produced by SMCalc                *
#                                                                    *
#  Please note the following IMPORTANT issues:                       *
#                                                                    *
# 0. REFRAIN from editing this file by hand! Some of the parame-     *
#    ters are not independent                                        *
#    (such as G_Fermi, alpha_em, sin(theta_W),MZ,MW) and serious     *
#    problems might be encountered (such as violation of unitarity   *
#    or gauge invariance).  Always use a calculator.                 *
#                                                                    *
# 1. alpha_S(MZ) has been used in the calculation of the parameters  *
#    but, for consistency, it will be reset by madgraph to the       *
#    value expected IF the pdfs for collisions with hadrons are      *
#    used. This value is KEPT by madgraph when no pdf are used       *
#    lpp(i)=0 .                                                      *
#                                                                    *
#  2. Values of the charm and bottom kinematic (pole) masses are     *
#     those used in the matrix elements and phase space UNLESS they  *
#     are set to ZERO from the start in the model (particles.dat)    *
#     This happens, for example,  when using 5-flavor QCD where      *
#     charm and bottom are treated as partons in the initial state   *
#     and a zero mass might be hardwired in the model definition.    *
#                                                                    *
##********************************************************************
Block MODSEL # Select Model
     0   1   #  0 1 = SM
Block SMINPUTS      # Standard Model inputs
     1         1.27900000E+02   # alpha_em(MZ)(-1) SM MSbar
     2         1.16600000E-05   # G_Fermi
     3         1.18000000E-01   # alpha_s(MZ) SM MSbar
     4         9.15445065E+01   # Z mass (as input parameter)
Block MGYUKAWA     # Yukawa masses m/v=y/sqrt(2)
#    PDG          YMASS
     5         4.20000000E+00   # mbottom for the Yukawa  y_b
     4         1.25000000E+00   # mcharm  for the Yukawa  y_c
     6         1.74300000E+02   # mtop    for the Yukawa  y_t
    15         1.77700000E+00   # mtau    for the Yukawa  y_ta
Block MGCKM     # CKM elements for MadGraph
     1   1     9.75000000E-01   # Vud for Cabibbo matrix
#===========================================================
# QUANTUM NUMBERS OF NEW STATE(S) (NON SM PDG CODE) IF ANY
# (see below for masses and decay tables)
# These blocks are automatically created by the MadGraph
# qnumbers.pl script from the particles.dat model file
#===========================================================
BLOCK QNUMBERS 611 # f-
         1  -3 # 3 times electric charge
         2  2 # number of spin states (2S+1)
         3  1 # colour rep (1: singlet, 3: triplet, 8: octet)
         4  1 # Particle/Antiparticle distinction (0=own anti)
BLOCK QNUMBERS 622 # x
         1  0 # 3 times electric charge
         2  3 # number of spin states (2S+1)
         3  1 # colour rep (1: singlet, 3: triplet, 8: octet)
         4  0 # Particle/Antiparticle distinction (0=own anti)
BLOCK QNUMBERS 623 # N-
         1  0 # 3 times electric charge
         2  2 # number of spin states (2S+1)
         3  1 # colour rep (1: singlet, 3: triplet, 8: octet)
         4  1 # Particle/Antiparticle distinction (0=own anti)
# END of QNUMBERS blocks
#===========================================================
Block MASS      #  Mass spectrum (kinematic masses)
#       PDG       Mass
         4     1.40000000E+00   # charm    pole mass
         5     4.20000000E+00   # bottom   pole mass
         6     1.74300000E+02   # top      pole mass
        11     0.51109989E-03   # electron mass
        13     0.10565837E+00   # muon     mass
        15     1.77700000E+00   # tau      mass
        23     9.15445065E+01   # Z        mass
        24     8.02673592E+01   # W        mass
        25     1.20000000E+02   # H        mass
       611 0.003 # FMASS
       622 0.009 # APMASS
       623     1.71300000e+02   # HPMASS (tungsten)
#            PDG       Width
DECAY       611     0.00000000e+00   # ELWIDTH
DECAY 622 0.00027329719725 # APWIDTH
DECAY       623     0.00000000e+00   # HPWIDTH
DECAY         6     1.51013490E+00   # top width
DECAY        23     2.44639985E+00   # Z   width
DECAY        24     2.03535570E+00   # W   width
DECAY        25     6.79485838E-03   # H   width
#        BR           NDA        ID1       ID2
     7.00588389E-02    2           4        -4   # BR( H -> c  cbar  )
     7.61074375E-01    2           5        -5   # BR( H -> b  bbar  )
     0.00000000E+00    2           6        -6   # BR( H -> t  tbar  )
     3.65529942E-02    2          15       -15   # BR( H -> tau- tau+)
     5.84716539E-03    2          23        23   # BR( H -> Z   Z^(*))
     6.31545979E-02    2          24       -24   # BR( H -> W   W^(*))
     2.55499652E-02    2          21        21   # BR( H -> g   g    )
     1.20906932E-03    2          22        22   # BR( H -> A   A    )
BLOCK MGUSER
         1     1.00000000e-00   # epsilon ,mixing coefficient
         2     74.0000000e+00   # Znuc    ,nuclear charge
</slha>
<MGRunCard>
#*********************************************************************
#                       MadGraph/MadEvent                            *
#                  http://madgraph.hep.uiuc.edu                      *
#                                                                    *
#                        run_card.dat                                *
#                                                                    *
#  This file is used to set the parameters of the run.               *
#                                                                    *
#  Some notation/conventions:                                        *
#                                                                    *
#   Lines starting with a '# ' are info or comments                  *
#                                                                    *
#   mind the format:   value    = variable     ! comment             *
#*********************************************************************
#
#*******************                                                 
# Running parameters
#*******************                                                 
#                                                                    
#*********************************************************************
# Tag name for the run (one word)                                    *
#*********************************************************************
  'HPS'     = run_tag ! name of the run 
#*********************************************************************
# Run to generate the grid pack                                      *
#*********************************************************************
  .false.     = gridpack  !True = setting up the grid pack
#*********************************************************************
# Number of events and rnd seed                                      *
#*********************************************************************
   1000      = nevents ! Number of unweighted events requested 
188702 = iseed ! rnd seed (0=assigned automatically=default))
#*********************************************************************
# Collider type and energy                                           *
#*********************************************************************
        0     = lpp1  ! beam 1 type (0=NO PDF)
        0     = lpp2  ! beam 2 type (0=NO PDF)
4 = ebeam1  ! beam 1 energy in GeV
    171.3    = ebeam2  ! beam 2 energy in GeV
    0.000511  = mbeam1  ! beam 1 energy in GeV
    171.3    = mbeam2  ! beam 2 energy in GeV
#*********************************************************************
# Beam polarization from -100 (left-handed) to 100 (right-handed)    *
#*********************************************************************
        0     = polbeam1 ! beam polarization for beam 1
        0     = polbeam2 ! beam polarization for beam 2
#*********************************************************************
# PDF CHOICE: this automatically fixes also alpha_s and its evol.    *
#*********************************************************************
 'cteq6l1'    = pdlabel     ! PDF set                                     
#*********************************************************************
# Renormalization and factorization scales                           *
#*********************************************************************
 F        = fixed_ren_scale  ! if .true. use fixed ren scale
 F        = fixed_fac_scale  ! if .true. use fixed fac scale
 91.1880  = scale            ! fixed ren scale
 91.1880  = dsqrt_q2fact1    ! fixed fact scale for pdf1
 91.1880  = dsqrt_q2fact2    ! fixed fact scale for pdf2
 1        = scalefact        ! scale factor for event-by-event scales
 F        = fixed_couplings  ! if .false. calc. coupl. for every event
#*********************************************************************
# Matching - Warning! ickkw > 0 is still beta
#*********************************************************************
 0        = ickkw            ! 0 no matching, 1 MLM, 2 CKKW matching
#*********************************************************************
#                                                                    
#**********************************
32.9311829414 = bwcutoff*Gamma)
#**********************************
32.9311829414 = bwcutoff
#*******************                                                 
# Fixed-Target Cuts
#*******************                                                 
#
 0.0 = ef        ! minimum E for all f's
 100.0 = efmax     ! maximum E for all f's
 0.0 = thetafmin ! min angle for both f's
 100.0 = thetafmax ! max angle for both f's
 0.0 = thetaxfmin ! min angle (x direction) for both f's
 100.0 = thetaxfmax ! max angle (x direction) for both f's 
 0.0 = thetayfmin ! min angle (y direction) for both f's
 100.0 = thetayfmax ! max angle (y direction) for both f's 
 0.0 = xthetaxfmin ! min angle (x direction) for >=1 f's
 100.0 = xthetaxfmax ! max angle (x direction) for >=1 f's 
 0.0 = xthetayfmin ! min angle (y direction) for >=1 f's
 100.0 = xthetayfmax ! max angle (y direction) for >=1 f's 
 0.0 = mmff      ! min invariant mass of f+f- lepton pair
 100.0 = mmffmax  ! max invariant mass of f+f- lepton pair
 0.0 = xef       ! min. energy for at least one f
 0.0 = xthetaf   ! minimum angle for at least one f
 0.0 = eftot     ! minimum energy for the two f's
 0d0 = efrat     ! min. ratio Emin/Emax for the two f's
 0.0  = el     !!! 0.2 = el  !!! was 0.05 with normal cuts! minimum E for the charged leptons 
 0.0  = drll  !!! was 0.1  ! min distance between leptons 
 0.0  = mmll    ! min invariant mass of l+l- (same flavour) lepton pair
#
#*******************                                                 
# Standard Cuts
#*******************                                                 
#                                                                    
#*********************************************************************
# Minimum and maximum pt's                                           *
#*********************************************************************
  0  = ptj       ! minimum pt for the jets 
  0  = ptb       ! minimum pt for the b 
  0  = pta       ! minimum pt for the photons 
  0  = ptl       ! minimum pt for the charged leptons 
  0  = misset    ! minimum missing Et (sum of neutrino's momenta)
  0  = ptheavy   ! minimum pt for one heavy final state
 1.0 = ptonium   ! minimum pt for the quarkonium states
 1d5 = ptjmax    ! maximum pt for the jets
 1d5 = ptbmax    ! maximum pt for the b
 1d5 = ptamax    ! maximum pt for the photons
 1d9 = ptlmax    ! maximum pt for the charged leptons
 1d9 = missetmax ! maximum missing Et (sum of neutrino's momenta)
#*********************************************************************
# Minimum and maximum E's (in the lab frame)                         *
#*********************************************************************
  0  = ej     ! minimum E for the jets 
  0  = eb     ! minimum E for the b 
  0  = ea     ! minimum E for the photons 
 1d5  = ejmax ! maximum E for the jets
 1d5  = ebmax ! maximum E for the b
 1d5  = eamax ! maximum E for the photons
 1.2  = elmax ! maximum E for the charged leptons
#*********************************************************************
# Maximum and minimum rapidity                                       *
#*********************************************************************
 1d5  = etaj    ! max rap for the jets 
 1d5  = etab    ! max rap for the b 
 1d5  = etaa    ! max rap for the photons 
 1d5  = etal     !!! 1(2) wth cuts ! max rap for the charged leptons 
 1d5  = etafl     !!! 0(1) wth cuts ! max rap for the charged leptons 
 0.0  = etaonium ! max rap for the quarkonium states
 0d0  = etajmin ! min rap for the jets
 0d0  = etabmin ! min rap for the b
 0d0  = etaamin ! min rap for the photons
 0d0  = etalmin ! main rap for the charged lepton
#*********************************************************************
# Minimum and maximum DeltaR distance                                *
#*********************************************************************
 0   = drjj    ! min distance between jets 
 0   = drbb    ! min distance between b's 
 0   = draa    ! min distance between gammas 
 0   = drbj    ! min distance between b and jet 
 0   = draj    ! min distance between gamma and jet 
 0   = drjl    ! min distance between jet and lepton 
 0   = drab    ! min distance between gamma and b 
 0   = drbl    ! min distance between b and lepton 
 0   = dral    ! min distance between gamma and lepton 
 1d2 = drjjmax ! max distance between jets
 1d2 = drbbmax ! max distance between b's
 1d9 = drllmax ! max distance between leptons
 1d2 = draamax ! max distance between gammas
 1d2 = drbjmax ! max distance between b and jet
 1d2 = drajmax ! max distance between gamma and jet
 1d2 = drjlmax ! max distance between jet and lepton
 1d2 = drabmax ! max distance between gamma and b
 1d2 = drblmax ! max distance between b and lepton
 1d2 = dralmax ! maxdistance between gamma and lepton
#*********************************************************************
# Minimum and maximum invariant mass for pairs                       *
#*********************************************************************
 0   = mmjj    ! min invariant mass of a jet pair 
 0   = mmbb    ! min invariant mass of a b pair 
 0   = mmaa    ! min invariant mass of gamma gamma pair
 1d5 = mmjjmax ! max invariant mass of a jet pair
 1d5 = mmbbmax ! max invariant mass of a b pair
 1d5 = mmaamax ! max invariant mass of gamma gamma pair
 1d5 = mmllmax ! max invariant mass of l+l- (same flavour) lepton pair
#*********************************************************************
# Minimum and maximum invariant mass for all letpons                 *
#*********************************************************************
 0   = mmnl    ! min invariant mass for all letpons (l+- and vl) 
 1d9 = mmnlmax ! max invariant mass for all letpons (l+- and vl) 
#*********************************************************************
# Inclusive cuts                                                     *
#*********************************************************************
 0  = xptj ! minimum pt for at least one jet  
 0  = xptb ! minimum pt for at least one b 
 0  = xpta ! minimum pt for at least one photon 
 0  = xptl ! minimum pt for at least one charged lepton 
#*********************************************************************
# Control the pt's of the jets sorted by pt                          *
#*********************************************************************
 0   = ptj1min ! minimum pt for the leading jet in pt
 0   = ptj2min ! minimum pt for the second jet in pt
 0   = ptj3min ! minimum pt for the third jet in pt
 0   = ptj4min ! minimum pt for the fourth jet in pt
 1d5 = ptj1max ! maximum pt for the leading jet in pt 
 1d5 = ptj2max ! maximum pt for the second jet in pt
 1d5 = ptj3max ! maximum pt for the third jet in pt
 1d5 = ptj4max ! maximum pt for the fourth jet in pt
 0   = cutuse  ! reject event if fails any (0) / all (1) jet pt cuts
#*********************************************************************
# Control the Ht(k)=Sum of k leading jets                            *
#*********************************************************************
 0   = htjmin ! minimum jet HT=Sum(jet pt)
 1d5 = htjmax ! maximum jet HT=Sum(jet pt)
 0   = ht2min ! minimum Ht for the two leading jets
 0   = ht3min ! minimum Ht for the three leading jets
 0   = ht4min ! minimum Ht for the four leading jets
 1d5 = ht2max ! maximum Ht for the two leading jets
 1d5 = ht3max ! maximum Ht for the three leading jets
 1d5 = ht4max ! maximum Ht for the four leading jets
#*********************************************************************
# WBF cuts                                                           *
#*********************************************************************
 0   = xetamin ! minimum rapidity for two jets in the WBF case  
 0   = deltaeta ! minimum rapidity for two jets in the WBF case 
#*********************************************************************
# maximal pdg code for quark to be considered as a jet               *
# otherwise b cuts are applied                                       *
#*********************************************************************
 4 = maxjetflavor
#*********************************************************************
# Jet measure cuts                                                   *
#*********************************************************************
 0   = xqcut   ! minimum kt jet measure between partons
#*********************************************************************
</MGRunCard>
<MGGenerationInfo>
#  Number of Events        :        1000
#  Integrated weight (pb)  :  .61357E+12
#  Truncated wgt (pb)      :  .76259E+09
#  Unit wgt                :  .61357E+09
</MGGenerationInfo>
</header>
<init>
       11     -623  0.40000000000E+01  0.17130000000E+03 0 0     0     0 3  1
  0.61357413870E+12  0.67225453451E+10  0.61357000000E+09   0
</init>
<event>
 5   0  0.6135700E+09  0.9118800E+02  0.7818608E-02  0.1180000E+00
       11   -1    0    0    0    0  0.00000000000E+00  0.00000000000E+00  0.39999999673E+01  0.40000000000E+01  0.51109989000E-03 0. -1.
     -623   -1    0    0    0    0  0.00000000000E+00  0.00000000000E+00  0.12525980253E-10  0.17130000000E+03  0.17130000000E+03 0.  1.
       11    1    1    2    0    0  0.37329846968E-02  0.67233178064E-03  0.16076013831E-01  0.16525333538E-01  0.51109989000E-03 0. -1.
     -623    1    1    2    0    0 -0.44991758347E-02  0.62273659139E-03  0.45979912435E-03  0.17130000006E+03  0.17130000000E+03 0.  1.
      622    1    1    2    0    0  0.76619113807E-03 -0.12950683721E-02  0.39834641546E+01  0.39834746058E+01  0.90000000000E-02 0. -1.
</event>
<event>
 5   0  0.6135700E+09  0.9118800E+02  0.7818608E-02  0.1180000E+00
       11   -1    0    0    0    0  0.00000000000E+00  0.00000000000E+00  0.39999999673E+01  0.40000000000E+01  0.51109989000E-03 0. -1.
     -623   -1    0    0    0    0  0.00000000000E+00  0.00000000000E+00  0.12525980253E-10  0.17130000000E+03  0.17130000000E+03 0. -1.
       11    1    1    2    0    0  0.18630114545E-02 -0.47846731894E-02  0.63219038274E+00  0.63221144024E+00  0.51109989000E-03 0. -1.
     -623    1    1    2    0    0  0.76215866014E-04  0.37436103235E-05  0.37002442235E-04  0.17130000000E+03  0.17130000000E+03 0. -1.
      622    1    1    2    0    0 -0.19392273206E-02  0.47809295790E-02  0.33677725869E+01  0.33677885645E+01  0.90000000000E-02 0. -1.
</event>
<event>
 5   0  0.6135700E+09  0.9118800E+02  0.7818608E-02  0.1180000E+00
       11   -1    0    0    0    0  0.00000000000E+00  0.00000000000E+00  0.39999999673E+01  0.40000000000E+01  0.51109989000E-03 0.  1.
     -623   -1    0    0    0    0  0.00000000000E+00  0.00000000000E+00  0.12525980253E-10  0.17130000000E+03  0.17130000000E+03 0.  1.
       11    1    1    2    0    0 -0.25748274731E-02  0.16771714986E-02  0.24103348915E+00  0.24105361801E+00  0.51109989000E-03 0. -1.
     -623    1    1    2    0    0 -0.19807458758E-02  0.35775113996E-02  0.37352678997E-04  0.17130000005E+03  0.17130000000E+03 0.  1.
      622    1    1    2    0    0  0.45555733489E-02 -0.52546828981E-02  0.37589291254E+01  0.37589463330E+01  0.90000000000E-02 0.  1.
</event>
<event>
 5   0  0.6135700E+09  0.9118800E+02  0.7818608E-02  0.1180000E+00
       11   -1    0    0    0    0  0.00000000000E+00  0.00000000000E+00  0.39999999673E+01  0.40000000000E+01  0.51109989000E-03 0.  1.
     -623   -1    0    0    0    0  0.00000000000E+00  0.00000000000E+00  0.12525980253E-10  0.17130000000E+03  0.17130000000E+03 0.  1.
       11    1    1    2    0    0  0.19780692850E-03  0.26984600732E-03  0.14226293628E-01  0.14239403005E-01  0.51109989000E-03 0. -1.
     -623    1    1    2    0    0  0.62389099575E-05  0.19783513283E-03  0.23270699409E-04  0.17130000000E+03  0.17130000000E+03 0.  1.
      622    1    1    2    0    0 -0.20404583845E-03 -0.46768113968E-03  0.39857503934E+01  0.39857605873E+01  0.90000000000E-02 0.  1.
</event>
<event>
 5   0  0.6135700E+09  0.9118800E+02  0.7818608E-02  0.1180000E+00
       11   -1    0    0    0    0  0.00000000000E+00  0.00000000000E+00  0.39999999673E+01  0.40000000000E+01  0.51109989000E-03 0.  1.
     -623   -1    0    0    0    0  0.00000000000E+00  0.00000000000E+00  0.12525980253E-10  0.17130000000E+03  0.17130000000E+03 0. -1.
       11    1    1    2    0    0  0.27258470474E-02 -0.21616726277E-02  0.22796422193E+00  0.22799133925E+00  0.51109989000E-03 0.  1.
     -623    1    1    2    0    0 -0.26093600999E-02 -0.32968116904E-02  0.41824592077E-04  0.17130000005E+03  0.17130000000E+03 0. -1.
      622    1    1    2    0    0 -0.11648694707E-03  0.54584843186E-02  0.37719939215E+01  0.37720086098E+01  0.90000000000E-02 0.  1.
</event>
<event>
 5   0  0.6135700E+09  0.9118800E+02  0.7818608E-02  0.1180000E+00
       11   -1    0    0    0    0  0.00000000000E+00  0.00000000000E+00  0.39999999673E+01  0.40000000000E+01  0.51109989000E-03 0. -1.
     -623   -1    0    0    0    0  0.00000000000E+00  0.00000000000E+00  0.12525980253E-10  0.17130000000E+03  0.17130000000E+03 0. -1.
       11    1    1    2    0    0  0.28216665413E-02  0.20721101385E-02  0.73750772545E+00  0.73751621118E+00  0.51109989000E-03 0. -1.
     -623    1    1    2    0    0  0.79671300854E-03 -0.54208213889E-03  0.23235019759E-04  0.17130000000E+03  0.17130000000E+03 0. -1.
      622    1    1    2    0    0 -0.36183795498E-02 -0.15300279997E-02  0.32624690069E+01  0.32624837861E+01  0.90000000000E-02 0. -1.
</event>
<event>
 5   0  0.6135700E+09  0.9118800E+02  0.7818608E-02  0.1180000E+00
       11   -1    0    0    0    0  0.00000000000E+00  0.00000000000E+00  0.39999999673E+01  0.40000000000E+01  0.51109989000E-03 0. -1.
     -623   -1    0    0    0    0  0.00000000000E+00  0.00000000000E+00  0.12525980253E-10  0.17130000000E+03  0.17130000000E+03 0. -1.
       11    1    1    2    0    0  0.24663856063E-03  0.81738829424E-03  0.56498355983E-01  0.56507118164E-01  0.51109989000E-03 0. -1.
     -623    1    1    2    0    0  0.59722210562E-04 -0.39343444284E-04  0.19088307002E-04  0.17130000000E+03  0.17130000000E+03 0. -1.
      622    1    1    2    0    0 -0.30636077119E-03 -0.77804484995E-03  0.39434825231E+01  0.39434928818E+01  0.90000000000E-02 0. -1.
</event>
<event>
 5   0  0.6135700E+09  0.9118800E+02  0.7818608E-02  0.1180000E+00
       11   -1    0    0    0    0  0.00000000000E+00  0.00000000000E+00  0.39999999673E+01  0.40000000000E+01  0.51109989000E-03 0.  1.
     -623   -1    0    0    0    0  0.00000000000E+00  0.00000000000E+00  0.12525980253E-10  0.17130000000E+03  0.17130000000E+03 0. -1.
       11    1    1    2    0    0  0.21879119287E-02  0.14160608145E-02  0.18349515188E+00  0.18351437048E+00  0.51109989000E-03 0.  1.
     -623    1    1    2    0    0  0.38529690192E-04 -0.85763834356E-04  0.30679137894E-04  0.17130000000E+03  0.17130000000E+03 0. -1.
      622    1    1    2    0    0 -0.22264416189E-02 -0.13302969801E-02  0.38164741375E+01  0.38164856306E+01  0.90000000000E-02 0.  1.
</event>
<event>
 5   0  0.6135700E+09  0.9118800E+02  0.7818608E-02  0.1180000E+00
       11   -1    0    0    0    0  0.00000000000E+00  0.00000000000E+00  0.39999999673E+01  0.40000000000E+01  0.51109989000E-03 0.  1.
     -623   -1    0    0    0    0  0.00000000000E+00  0.00000000000E+00  0.12525980253E-10  0.17130000000E+03  0.17130000000E+03 0. -1.
       11    1    1    2    0    0  0.44825485649E-03  0.68509157533E-03  0.73032451333E-03  0.12103222196E-02  0.51109989000E-03 0.  1.
     -623    1    1    2    0    0 -0.11459506864E-02 -0.12129432442E-03  0.49019833240E-03  0.17130000000E+03  0.17130000000E+03 0. -1.
      622    1    1    2    0    0  0.69769583015E-03 -0.56379725088E-03  0.39987794453E+01  0.39987896740E+01  0.90000000000E-02 0.  1.
</event>
<event>
 5   0  0.6135700E+09  0.9118800E+02  0.7818608E-02  0.1180000E+00
       11   -1    0    0    0    0  0.00000000000E+00  0.00000000000E+00  0.39999999673E+01  0.40000000000E+01  0.51109989000E-03 0.  1.
     -623   -1    0    0    0    0  0.00000000000E+00  0.00000000000E+00  0.12525980253E-10  0.17130000000E+03  0.17130000000E+03 0. -1.
       11    1    1    2    0    0  0.36651396592E-04  0.16987177850E-02  0.42322929386E-01  0.42360105764E-01  0.51109989000E-03 0.  1.
     -623    1    1    2    0    0  0.72419152718E-04  0.32298128776E-04  0.47757212884E-04  0.17130000000E+03  0.17130000000E+03 0. -1.
      622    1    1    2    0    0 -0.10907054930E-03 -0.17310159138E-02  0.39576292803E+01  0.39576398938E+01  0.90000000000E-02 0.  1.
</event>
<event>
 5   0  0.6135700E+09  0.9118800E+02  0.7818608E-02  0.1180000E+00
       11   -1    0    0    0    0  0.00000000000E+00  0.00000000000E+00  0.39999999673E+01  0.40000000000E+01  0.51109989000E-03 0.  1.
     -623   -1    0    0    0    0  0.00000000000E+00  0.00000000000E+00  0.12525980253E-10  0.17130000000E+03  0.17130000000E+03 0.  1.
       11    1    1    2    0    0  0.20079629804E-02 -0.19069167152E-02  0.66687864226E+00  0.66688458744E+00  0.51109989000E-03 0.  1.
     -623    1    1    2    0    0  0.25387534142E-03  0.31826140929E-03  0.19209885894E-04  0.17130000000E+03  0.17130000000E+03 0.  1.
      622    1    1    2    0    0 -0.22618383218E-02  0.15886553059E-02  0.33331021152E+01  0.33331154121E+01  0.90000000000E-02 0.  1.
</event>
<event>
 5   0  0.6135700E+09  0.9118800E+02  0.7818608E-02  0.1180000E+00
       11   -1    0    0    0    0  0.00000000000E+00  0.00000000000E+00  0.39999999673E+01  0.40000000000E+01  0.51109989000E-03 0.  1.
     -623   -1    0    0    0    0  0.00000000000E+00  0.00000000000E+00  0.12525980253E-10  0.17130000000E+03  0.17130000000E+03 0.  1.
       11    1    1    2    0    0  0.66745392381E-02  0.38707237172E-02  0.22008870240E-01  0.23327742398E-01  0.51109989000E-03 0.  1.
     -623    1    1    2    0    0 -0.62087434614E-02  0.31820817232E-03  0.13313754596E-02  0.17130000012E+03  0.17130000000E+03 0.  1.
      622    1    1    2    0    0 -0.46579577678E-03 -0.41889318895E-02  0.39766597217E+01  0.39766721396E+01  0.90000000000E-02 0.  1.
</event>
<event>
 5   0  0.6135700E+09  0.9118800E+02  0.7818608E-02  0.1180000E+00
       11   -1    0    0    0    0  0.00000000000E+00  0.00000000000E+00  0.39999999673E+01  0.40000000000E+01  0.51109989000E-03 0.  1.
     -623   -1    0    0    0    0  0.00000000000E+00  0.00000000000E+00  0.12525980253E-10  0.17130000000E+03  0.17130000000E+03 0. -1.
       11    1    1    2    0    0 -0.79130585179E-06  0.13071111198E-02  0.10028951040E+00  0.10029933031E+00  0.51109989000E-03 0.  1.
     -623    1    1    2    0    0 -0.36751108318E-03 -0.28631838700E-03  0.20324319736E-04  0.17130000000E+03  0.17130000000E+03 0. -1.
      622    1    1    2    0    0  0.36830238919E-03 -0.10207927327E-02  0.38996901344E+01  0.38997006709E+01  0.90000000000E-02 0.  1.
</event>
<event>
 5   0  0.6135700E+09  0.9118800E+02  0.7818608E-02  0.1180000E+00
       11   -1    0    0    0    0  0.00000000000E+00  0.00000000000E+00  0.39999999673E+01  0.40000000000E+01  0.51109989000E-03 0. -1.
     -623   -1    0    0    0    0  0.00000000000E+00  0.00000000000E+00  0.12525980253E-10  0.17130000000E+03  0.17130000000E+03 0. -1.
       11    1    1    2    0    0  0.68807097930E-02  0.46357524746E-02  0.21527473302E+00  0.21543515560E+00  0.51109989000E-03 0. -1.
     -623    1    1    2    0    0 -0.41616638888E-01 -0.49675727260E-02  0.33564620945E-03  0.17130000513E+03  0.17130000000E+03 0. -1.
      622    1    1    2    0    0  0.34735929087E-01  0.33182025047E-03  0.37843895874E+01  0.37845597160E+01  0.90000000000E-02 0. -1.
</event>
<event>
 5   0  0.6135700E+09  0.9118800E+02  0.7818608E-02  0.1180000E+00
       11   -1    0    0    0    0  0.00000000000E+00  0.00000000000E+00  0.39999999673E+01  0.40000000000E+01  0.51109989000E-03 0.  1.
     -623   -1    0    0    0    0  0.00000000000E+00  0.00000000000E+00  0.12525980253E-10  0.17130000000E+03  0.17130000000E+03 0.  1.
       11    1    1    2    0    0 -0.69983818249E-03 -0.11099416836E-02  0.33036646674E-01  0.33066644639E-01  0.51109989000E-03 0.  1.
     -623    1    1    2    0    0 -0.37868739295E-03  0.18139921043E-03  0.40430542715E-04  0.17130000000E+03  0.17130000000E+03 0.  1.
      622    1    1    2    0    0  0.10785255754E-02  0.92854247315E-03  0.39669228901E+01  0.39669333548E+01  0.90000000000E-02 0.  1.
</event>
<event>
 5   0  0.6135700E+09  0.9118800E+02  0.7818608E-02  0.1180000E+00
       11   -1    0    0    0    0  0.00000000000E+00  0.00000000000E+00  0.39999999673E+01  0.40000000000E+01  0.51109989000E-03 0. -1.
     -623   -1    0    0    0    0  0.00000000000E+00  0.00000000000E+00  0.12525980253E-10  0.17130000000E+03  0.17130000000E+03 0.  1.
       11    1    1    2    0    0  0.76933114374E-02  0.40592433259E-02  0.51749562671E+00  0.51756898032E+00  0.51109989000E-03 0. -1.
     -623    1    1    2    0    0 -0.36927769085E-02 -0.84554943243E-02  0.90272117036E-04  0.17130000025E+03  0.17130000000E+03 0.  1.
      622    1    1    2    0    0 -0.40005345244E-02  0.43962510087E-02  0.34824140734E+01  0.34824307761E+01  0.90000000000E-02 0. -1.
</event>
<event>
 5   0  0.6135700E+09  0.9118800E+02  0.7818608E-02  0.1180000E+00
       11   -1    0    0    0    0  0.00000000000E+00  0.00000000000E+00  0.39999999673E+01  0.40000000000E+01  0.51109989000E-03 0.  1.
     -623   -1    0    0    0    0  0.00000000000E+00  0.00000000000E+00  0.12525980253E-10  0.17130000000E+03  0.17130000000E+03 0.  1.
       11    1    1    2    0    0 -0.25983528384E-01 -0.26303788853E-01  0.48762659150E+00  0.48902657087E+00  0.51109989000E-03 0.  1.
     -623    1    1    2    0    0  0.84124677702E-02  0.52402269663E-02  0.15189294823E-02  0.17130000029E+03  0.17130000000E+03 0.  1.
      622    1    1    2    0    0  0.17571060614E-01  0.21063561887E-01  0.35108544464E+01  0.35109731357E+01  0.90000000000E-02 0.  1.
</event>
<event>
 5   0  0.6135700E+09  0.9118800E+02  0.7818608E-02  0.1180000E+00
       11   -1    0    0    0    0  0.00000000000E+00  0.00000000000E+00  0.39999999673E+01  0.40000000000E+01  0.51109989000E-03 0.  1.
     -623   -1    0    0    0    0  0.00000000000E+00  0.00000000000E+00  0.12525980253E-10  0.17130000000E+03  0.17130000000E+03 0.  1.
       11    1    1    2    0    0  0.40472780259E-02 -0.28915463679E-01  0.11414172415E+01  0.11417907273E+01  0.51109989000E-03 0.  1.
     -623    1    1    2    0    0  0.12797137083E-03 -0.49712226208E-03  0.54201509005E-03  0.17130000000E+03  0.17130000000E+03 0.  1.
      622    1    1    2    0    0 -0.41752493967E-02  0.29412585942E-01  0.28580407107E+01  0.28582092710E+01  0.90000000000E-02 0. -1.
</event>
<event>
 5   0  0.6135700E+09  0.9118800E+02  0.7818608E-02  0.1180000E+00
       11   -1    0    0    0    0  0.00000000000E+00  0.00000000000E+00  0.39999999673E+01  0.40000000000E+01  0.51109989000E-03 0.  1.
     -623   -1    0    0    0    0  0.00000000000E+00  0.00000000000E+00  0.12525980253E-10  0.17130000000E+03  0.17130000000E+03 0. -1.
       11    1    1    2    0    0 -0.97065276611E-03  0.10949771448E-02  0.48470207467E-01  0.48494983005E-01  0.51109989000E-03 0.  1.
     -623    1    1    2    0    0 -0.31098406395E-04 -0.13111779560E-03  0.35236759689E-04  0.17130000000E+03  0.17130000000E+03 0. -1.
      622    1    1    2    0    0  0.10017511724E-02 -0.96385934957E-03  0.39514945116E+01  0.39515050054E+01  0.90000000000E-02 0.  1.
</event>
<event>
 5   0  0.6135700E+09  0.9118800E+02  0.7818608E-02  0.1180000E+00
       11   -1    0    0    0    0  0.00000000000E+00  0.00000000000E+00  0.39999999673E+01  0.40000000000E+01  0.51109989000E-03 0.  1.
     -623   -1    0    0    0    0  0.00000000000E+00  0.00000000000E+00  0.12525980253E-10  0.17130000000E+03  0.17130000000E+03 0.  1.
       11    1    1    2    0    0  0.76850996381E-03  0.82849396941E-03  0.19778562330E-01  0.19817410546E-01  0.51109989000E-03 0.  1.
     -623    1    1    2    0    0  0.51680013882E-03 -0.81652598745E-03  0.49201283962E-04  0.17130000000E+03  0.17130000000E+03 0.  1.
      622    1    1    2    0    0 -0.12853101024E-02 -0.11967982241E-04  0.39801722024E+01  0.39801825853E+01  0.90000000000E-02 0.  1.
</event>
<event>
 5   0  0.6135700E+09  0.9118800E+02  0.7818608E-02  0.1180000E+00
       11   -1    0    0    0    0  0.00000000000E+00  0.00000000000E+00  0.39999999673E+01  0.40000000000E+01  0.51109989000E-03 0.  1.
     -623   -1    0    0    0    0  0.00000000000E+00  0.00000000000E+00  0.12525980253E-10  0.17130000000E+03  0.17130000000E+03 0.  1.
       11    1    1    2    0    0  0.99266625218E-03  0.93267425155E-03  0.28387648252E-01  0.28424902180E-01  0.51109989000E-03 0.  1.
     -623    1    1    2    0    0 -0.17903100932E-02  0.70609537761E-03  0.47847781684E-04  0.17130000001E+03  0.17130000000E+03 0.  1.
      622    1    1    2    0    0  0.79764384355E-03 -0.16387696301E-02  0.39715644769E+01  0.39715750926E+01  0.90000000000E-02 0.  1.
</event>
<event>
 5   0  0.6135700E+09  0.9118800E+02  0.7818608E-02  0.1180000E+00
       11   -1    0    0    0    0  0.00000000000E+00  0.00000000000E+00  0.39999999673E+01  0.40000000000E+01  0.51109989000E-03 0. -1.
     -623   -1    0    0    0    0  0.00000000000E+00  0.00000000000E+00  0.12525980253E-10  0.17130000000E+03  0.17130000000E+03 0.  1.
       11    1    1    2    0    0 -0.10164151266E-02 -0.17436520506E-03  0.29525150020E+00  0.29525374358E+00  0.51109989000E-03 0. -1.
     -623    1    1    2    0    0 -0.40665748289E-03  0.75005887855E-04  0.13417822585E-04  0.17130000000E+03  0.17130000000E+03 0.  1.
      622    1    1    2    0    0  0.14230726095E-02  0.99359317202E-04  0.37047350493E+01  0.37047462559E+01  0.90000000000E-02 0. -1.
</event>
<event>
 5   0  0.6135700E+09  0.9118800E+02  0.7818608E-02  0.1180000E+00
       11   -1    0    0    0    0  0.00000000000E+00  0.00000000000E+00  0.39999999673E+01  0.40000000000E+01  0.51109989000E-03 0. -1.
     -623   -1    0    0    0    0  0.00000000000E+00  0.00000000000E+00  0.12525980253E-10  0.17130000000E+03  0.17130000000E+03 0.  1.
       11    1    1    2    0    0  0.38289432952E-02 -0.48488552264E-02  0.25507925494E+00  0.25515458006E+00  0.51109989000E-03 0. -1.
     -623    1    1    2    0    0  0.79805354427E-04 -0.11009107042E-03  0.91430708301E-04  0.17130000000E+03  0.17130000000E+03 0.  1.
      622    1    1    2    0    0 -0.39087486496E-02  0.49589462968E-02  0.37448292805E+01  0.37448454186E+01  0.90000000000E-02 0. -1.
</event>
<event>
 5   0  0.6135700E+09  0.9118800E+02  0.7818608E-02  0.1180000E+00
       11   -1    0    0    0    0  0.00000000000E+00  0.00000000000E+00  0.39999999673E+01  0.40000000000E+01  0.51109989000E-03 0.  1.
     -623   -1    0    0    0    0  0.00000000000E+00  0.00000000000E+00  0.12525980253E-10  0.17130000000E+03  0.17130000000E+03 0.  1.
       11    1    1    2    0    0 -0.21198482397E-02  0.28927407967E-02  0.55087152942E+00  0.55088344035E+00  0.51109989000E-03 0.  1.
     -623    1    1    2    0    0  0.12614247013E-02 -0.59567357248E-03  0.24497865028E-04  0.17130000001E+03  0.17130000000E+03 0.  1.
      622    1    1    2    0    0  0.85842353847E-03 -0.22970672242E-02  0.34491039401E+01  0.34491165540E+01  0.90000000000E-02 0.  0.
</event>
<event>
 5   0  0.6135700E+09  0.9118800E+02  0.7818608E-02  0.1180000E+00
       11   -1    0    0    0    0  0.00000000000E+00  0.00000000000E+00  0.39999999673E+01  0.40000000000E+01  0.51109989000E-03 0. -1.
     -623   -1    0    0    0    0  0.00000000000E+00  0.00000000000E+00  0.12525980253E-10  0.17130000000E+03  0.17130000000E+03 0.  1.
       11    1    1    2    0    0 -0.17695159698E-02  0.11939501539E-02  0.11348523928E+01  0.11348545155E+01  0.51109989000E-03 0. -1.
     -623    1    1    2    0    0  0.69193544013E-03 -0.30186844349E-03  0.16568694022E-04  0.17130000000E+03  0.17130000000E+03 0.  1.
      622    1    1    2    0    0  0.10775805301E-02 -0.89208171061E-03  0.28651310037E+01  0.28651454807E+01  0.90000000000E-02 0. -1.
</event>
<event>
 5   0  0.6135700E+09  0.9118800E+02  0.7818608E-02  0.1180000E+00
       11   -1    0    0    0    0  0.00000000000E+00  0.00000000000E+00  0.39999999673E+01  0.40000000000E+01  0.51109989000E-03 0.  1.
     -623   -1    0    0    0    0  0.00000000000E+00  0.00000000000E+00  0.12525980253E-10  0.17130000000E+03  0.17130000000E+03 0.  1.
       11    1    1    2    0    0  0.76505383076E-02 -0.16044882896E-01  0.82422588955E+00  0.82441770191E+00  0.51109989000E-03 0.  1.
     -623    1    1    2    0    0 -0.45233375772E-03  0.19705684430E-01  0.21593584115E-03  0.17130000113E+03  0.17130000000E+03 0.  1.
      622    1    1    2    0    0 -0.71982045499E-02 -0.36608015335E-02  0.31755581420E+01  0.31755811639E+01  0.90000000000E-02 0.  1.
</event>
<event>
 5   0  0.6135700E+09  0.9118800E+02  0.7818608E-02  0.1180000E+00
       11   -1    0    0    0    0  0.00000000000E+00  0.00000000000E+00  0.39999999673E+01  0.40000000000E+01  0.51109989000E-03 0.  1.
     -623   -1    0    0    0    0  0.00000000000E+00  0.00000000000E+00  0.12525980253E-10  0.17130000000E+03  0.17130000000E+03 0. -1.
       11    1    1    2    0    0  0.76894043946E-04  0.44568439432E-03  0.49216518108E+00  0.49216565426E+00  0.51109989000E-03 0.  1.
     -623    1    1    2    0    0  0.10788377892E-03  0.30631498585E-03  0.12071927808E-04  0.17130000000E+03  0.17130000000E+03 0. -1.
      622    1    1    2    0    0 -0.18477782287E-03 -0.75199938016E-03  0.35078227144E+01  0.35078343454E+01  0.90000000000E-02 0.  1.
</event>
<event>
 5   0  0.6135700E+09  0.9118800E+02  0.7818608E-02  0.1180000E+00
       11   -1    0    0    0    0  0.00000000000E+00  0.00000000000E+00  0.39999999673E+01  0.40000000000E+01  0.51109989000E-03 0. -1.
     -623   -1    0    0    0    0  0.00000000000E+00  0.00000000000E+00  0.12525980253E-10  0.17130000000E+03  0.17130000000E+03 0.  1.
       11    1    1    2    0    0 -0.10412692284E-03 -0.13960680762E-02  0.33774896269E-01  0.33807760789E-01  0.51109989000E-03 0. -1.
     -623    1    1    2    0    0 -0.12082910008E-03 -0.12292569410E-03  0.43340547138E-04  0.17130000000E+03  0.17130000000E+03 0.  1.
      622    1    1    2    0    0  0.22495602304E-03  0.15189937704E-02  0.39661817343E+01  0.39661922429E+01  0.90000000000E-02 0. -1.
</event>
<event>
 5   0  0.6135700E+09  0.9118800E+02  0.7818608E-02  0.1180000E+00
       11   -1    0    0    0    0  0.00000000000E+00  0.00000000000E+00  0.39999999673E+01  0.40000000000E+01  0.51109989000E-03 0. -1.
     -623   -1    0    0    0    0  0.00000000000E+00  0.00000000000E+00  0.12525980253E-10  0.17130000000E+03  0.17130000000E+03 0.  1.
       11    1    1    2    0    0  0.49669762571E-03  0.19536826253E-02  0.82655934398E+00  0.82656196013E+00  0.51109989000E-03 0. -1.
     -623    1    1    2    0    0  0.16200617890E-04 -0.75597095157E-05  0.15983901833E-04  0.17130000000E+03  0.17130000000E+03 0.  1.
      622    1    1    2    0    0 -0.51289824357E-03 -0.19461229158E-02  0.31734246309E+01  0.31734380313E+01  0.90000000000E-02 0. -1.
</event>
<event>
 5   0  0.6135700E+09  0.9118800E+02  0.7818608E-02  0.1180000E+00
       11   -1    0    0    0    0  0.00000000000E+00  0.00000000000E+00  0.39999999673E+01  0.40000000000E+01  0.51109989000E-03 0.  1.
     -623   -1    0    0    0    0  0.00000000000E+00  0.00000000000E+00  0.12525980253E-10  0.17130000000E+03  0.17130000000E+03 0.  1.
       11    1    1    2    0    0 -0.16212583630E-02 -0.26294648356E-03  0.22937594098E+00  0.22938239066E+00  0.51109989000E-03 0.  1.
     -623    1    1    2    0    0  0.17259612491E-03 -0.65666324109E-02  0.23747335990E-04  0.17130000013E+03  0.17130000000E+03 0.  1.
      622    1    1    2    0    0  0.14486622381E-02  0.68295788945E-02  0.37706002790E+01  0.37706174834E+01  0.90000000000E-02 0.  0.
</event>
<event>
 5   0  0.6135700E+09  0.9118800E+02  0.7818608E-02  0.1180000E+00
       11   -1    0    0    0    0  0.00000000000E+00  0.00000000000E+00  0.39999999673E+01  0.40000000000E+01  0.51109989000E-03 0.  1.
     -623   -1    0    0    0    0  0.00000000000E+00  0.00000000000E+00  0.12525980253E-10  0.17130000000E+03  0.17130000000E+03 0.  1.
       11    1    1    2    0    0  0.19931812726E-01  0.25764756715E-01  0.14896372772E+00  0.15248460003E+00  0.51109989000E-03 0.  1.
     -623    1    1    2    0    0 -0.49725380403E-02 -0.21848108318E-01  0.35639433202E-02  0.17130000150E+03  0.17130000000E+03 0.  1.
      622    1    1    2    0    0 -0.14959274686E-01 -0.39166483969E-02  0.38474722963E+01  0.38475138974E+01  0.90000000000E-02 0.  1.
</event>
<event>
 5   0  0.6135700E+09  0.9118800E+02  0.7818608E-02  0.1180000E+00
       11   -1    0    0    0    0  0.00000000000E+00  0.00000000000E+00  0.39999999673E+01  0.40000000000E+01  0.51109989000E-03 0.  1.
     -623   -1    0    0    0    0  0.00000000000E+00  0.00000000000E+00  0.12525980253E-10  0.17130000000E+03  0.17130000000E+03 0. -1.
       11    1    1    2    0    0 -0.35414318677E-02  0.18713917617E-02  0.27718894859E+00  0.27721835850E+00  0.51109989000E-03 0.  1.
     -623    1    1    2    0    0  0.14814774035E-02  0.67124665760E-03  0.41702207808E-04  0.17130000001E+03  0.17130000000E+03 0. -1.
      622    1    1    2    0    0  0.20599544642E-02 -0.25426384193E-02  0.37227693166E+01  0.37227816338E+01  0.90000000000E-02 0.  1.
</event>
<event>
 5   0  0.6135700E+09  0.9118800E+02  0.7818608E-02  0.1180000E+00
       11   -1    0    0    0    0  0.00000000000E+00  0.00000000000E+00  0.39999999673E+01  0.40000000000E+01  0.51109989000E-03 0. -1.
     -623   -1    0    0    0    0  0.00000000000E+00  0.00000000000E+00  0.12525980253E-10  0.17130000000E+03  0.17130000000E+03 0.  1.
       11    1    1    2    0    0  0.95332951794E-03 -0.15550762987E-03  0.63288150216E-01  0.63297584459E-01  0.51109989000E-03 0. -1.
     -623    1    1    2    0    0 -0.76599418020E-04 -0.36880224096E-03  0.19822372310E-04  0.17130000000E+03  0.17130000000E+03 0.  1.
      622    1    1    2    0    0 -0.87673009992E-03  0.52430987084E-03  0.39366919948E+01  0.39367024151E+01  0.90000000000E-02 0. -1.
</event>
<event>
 5   0  0.6135700E+09  0.9118800E+02  0.7818608E-02  0.1180000E+00
       11   -1    0    0    0    0  0.00000000000E+00  0.00000000000E+00  0.39999999673E+01  0.40000000000E+01  0.51109989000E-03 0.  1.
     -623   -1    0    0    0    0  0.00000000000E+00  0.00000000000E+00  0.12525980253E-10  0.17130000000E+03  0.17130000000E+03 0. -1.
       11    1    1    2    0    0  0.57765189666E-03 -0.23751158081E-02  0.23396456522E+00  0.23397789182E+00  0.51109989000E-03 0.  1.
     -623    1    1    2    0    0 -0.67962267387E-04  0.21896988697E-02  0.24101088941E-04  0.17130000001E+03  0.17130000000E+03 0. -1.
      622    1    1    2    0    0 -0.50968962917E-03  0.18541693493E-03  0.37660113073E+01  0.37660221004E+01  0.90000000000E-02 0.  1.
</event>
<event>
 5   0  0.6135700E+09  0.9118800E+02  0.7818608E-02  0.1180000E+00
       11   -1    0    0    0    0  0.00000000000E+00  0.00000000000E+00  0.39999999673E+01  0.40000000000E+01  0.51109989000E-03 0. -1.
     -623   -1    0    0    0    0  0.00000000000E+00  0.00000000000E+00  0.12525980253E-10  0.17130000000E+03  0.17130000000E+03 0. -1.
       11    1    1    2    0    0  0.14003784366E-01 -0.28389207472E-02  0.45637637111E+00  0.45660028337E+00  0.51109989000E-03 0. -1.
     -623    1    1    2    0    0 -0.12408685038E-01 -0.23087529325E-02  0.23987268777E-03  0.17130000047E+03  0.17130000000E+03 0. -1.
      622    1    1    2    0    0 -0.15950993333E-02  0.51476736786E-02  0.35433837218E+01  0.35433992497E+01  0.90000000000E-02 0. -1.
</event>
<event>
 5   0  0.6135700E+09  0.9118800E+02  0.7818608E-02  0.1180000E+00
       11   -1    0    0    0    0  0.00000000000E+00  0.00000000000E+00  0.39999999673E+01  0.40000000000E+01  0.51109989000E-03 0.  1.
     -623   -1    0    0    0    0  0.00000000000E+00  0.00000000000E+00  0.12525980253E-10  0.17130000000E+03  0.17130000000E+03 0. -1.
       11    1    1    2    0    0  0.82752829631E-03  0.81292537716E-03  0.20702335486E+00  0.20702723573E+00  0.51109989000E-03 0.  1.
     -623    1    1    2    0    0 -0.14231092166E-03 -0.92550767910E-04  0.14656265961E-04  0.17130000000E+03  0.17130000000E+03 0. -1.
      622    1    1    2    0    0 -0.68521737445E-03 -0.72037460912E-03  0.37929619618E+01  0.37929727698E+01  0.90000000000E-02 0.  1.
</event>
<event>
 5   0  0.6135700E+09  0.9118800E+02  0.7818608E-02  0.1180000E+00
       11   -1    0    0    0    0  0.00000000000E+00  0.00000000000E+00  0.39999999673E+01  0.40000000000E+01  0.51109989000E-03 0. -1.
     -623   -1    0    0    0    0  0.00000000000E+00  0.00000000000E+00  0.12525980253E-10  0.17130000000E+03  0.17130000000E+03 0. -1.
       11    1    1    2    0    0 -0.55138075775E-03 -0.40273248061E-03  0.30488546281E-01  0.30500473629E-01  0.51109989000E-03 0. -1.
     -623    1    1    2    0    0 -0.13644657607E-01 -0.18973391651E-01  0.96366973955E-04  0.17130000159E+03  0.17130000000E+03 0. -1.
      622    1    1    2    0    0  0.14196038403E-01  0.19376124184E-01  0.39694150652E+01  0.39694979432E+01  0.90000000000E-02 0. -1.
</event>
<event>
 5   0  0.6135700E+09  0.9118800E+02  0.7818608E-02  0.1180000E+00
       11   -1    0    0    0    0  0.00000000000E+00  0.00000000000E+00  0.39999999673E+01  0.40000000000E+01  0.51109989000E-03 0. -1.
     -623   -1    0    0    0    0  0.00000000000E+00  0.00000000000E+00  0.12525980253E-10  0.17130000000E+03  0.17130000000E+03 0. -1.
       11    1    1    2    0    0  0.41053107570E-02  0.10647523796E-02  0.42168050565E+00  0.42170214292E+00  0.51109989000E-03 0. -1.
     -623    1    1    2    0    0 -0.51865951995E-02 -0.46343092287E-02  0.35007881860E-04  0.17130000014E+03  0.17130000000E+03 0. -1.
      622    1    1    2    0    0  0.10812844425E-02  0.35695568491E-02  0.35782844538E+01  0.35782977159E+01  0.90000000000E-02 0. -1.
</event>
<event>
 5   0  0.6135700E+09  0.9118800E+02  0.7818608E-02  0.1180000E+00
       11   -1    0    0    0    0  0.00000000000E+00  0.00000000000E+00  0.39999999673E+01  0.40000000000E+01  0.51109989000E-03 0. -1.
     -623   -1    0    0    0    0  0.00000000000E+00  0.00000000000E+00  0.12525980253E-10  0.17130000000E+03  0.17130000000E+03 0.  1.
       11    1    1    2    0    0 -0.18992409701E-02 -0.15281182118E-02  0.48340565637E+00  0.48341207276E+00  0.51109989000E-03 0. -1.
     -623    1    1    2    0    0 -0.68741418204E-03  0.30059138456E-02  0.19190205446E-04  0.17130000003E+03  0.17130000000E+03 0.  1.
      622    1    1    2    0    0  0.25866551521E-02 -0.14777956338E-02  0.35165751208E+01  0.35165878995E+01  0.90000000000E-02 0. -1.
</event>
<event>
 5   0  0.6135700E+09  0.9118800E+02  0.7818608E-02  0.1180000E+00
       11   -1    0    0    0    0  0.00000000000E+00  0.00000000000E+00  0.39999999673E+01  0.40000000000E+01  0.51109989000E-03 0.  1.
     -623   -1    0    0    0    0  0.00000000000E+00  0.00000000000E+00  0.12525980253E-10  0.17130000000E+03  0.17130000000E+03 0. -1.
       11    1    1    2    0    0  0.19594548632E-02 -0.66711404799E-03  0.62657543349E-01  0.62693807219E-01  0.51109989000E-03 0. -1.
     -623    1    1    2    0    0 -0.13562337826E-02  0.98384447077E-04  0.46610151389E-04  0.17130000001E+03  0.17130000000E+03 0. -1.
      622    1    1    2    0    0 -0.60322108059E-03  0.56872960091E-03  0.39372958139E+01  0.39373061874E+01  0.90000000000E-02 0.  1.
</event>
<event>
 5   0  0.6135700E+09  0.9118800E+02  0.7818608E-02  0.1180000E+00
       11   -1    0    0    0    0  0.00000000000E+00  0.00000000000E+00  0.39999999673E+01  0.40000000000E+01  0.51109989000E-03 0. -1.
     -623   -1    0    0    0    0  0.00000000000E+00  0.00000000000E+00  0.12525980253E-10  0.17130000000E+03  0.17130000000E+03 0.  1.
       11    1    1    2    0    0 -0.45078358397E-02 -0.26372735129E-03  0.47369133219E-01  0.47586617247E-01  0.51109989000E-03 0. -1.
     -623    1    1    2    0    0 -0.10908346038E-02  0.59461536120E-02  0.23585532697E-03  0.17130000011E+03  0.17130000000E+03 0.  1.
      622    1    1    2    0    0  0.55986704437E-02 -0.56824262619E-02  0.39523949796E+01  0.39524132767E+01  0.90000000000E-02 0. -1.
</event>
<event>
 5   0  0.6135700E+09  0.9118800E+02  0.7818608E-02  0.1180000E+00
       11   -1    0    0    0    0  0.00000000000E+00  0.00000000000E+00  0.39999999673E+01  0.40000000000E+01  0.51109989000E-03 0.  1.
     -623   -1    0    0    0    0  0.00000000000E+00  0.00000000000E+00  0.12525980253E-10  0.17130000000E+03  0.17130000000E+03 0. -1.
       11    1    1    2    0    0 -0.16112432840E-03  0.56946690566E-02  0.86715839339E+00  0.86717725735E+00  0.51109989000E-03 0.  1.
     -623    1    1    2    0    0  0.46249556916E-02 -0.34588872276E-02  0.35834328743E-04  0.17130000010E+03  0.17130000000E+03 0. -1.
      622    1    1    2    0    0 -0.44638313677E-02 -0.22357818256E-02  0.31328057436E+01  0.31328226492E+01  0.90000000000E-02 0.  1.
</event>
<event>
 5   0  0.6135700E+09  0.9118800E+02  0.7818608E-02  0.1180000E+00
       11   -1    0    0    0    0  0.00000000000E+00  0.00000000000E+00  0.39999999673E+01  0.40000000000E+01  0.51109989000E-03 0. -1.
     -623   -1    0    0    0    0  0.00000000000E+00  0.00000000000E+00  0.12525980253E-10  0.17130000000E+03  0.17130000000E+03 0. -1.
       11    1    1    2    0    0 -0.28319234965E-03 -0.28329040111E-02  0.41930113294E+00  0.41931110986E+00  0.51109989000E-03 0. -1.
     -623    1    1    2    0    0  0.88300289404E-03  0.18460447318E-02  0.21453424129E-04  0.17130000001E+03  0.17130000000E+03 0. -1.
      622    1    1    2    0    0 -0.59981054311E-03  0.98685928204E-03  0.35806773752E+01  0.35806888721E+01  0.90000000000E-02 0. -1.
</event>
<event>
 5   0  0.6135700E+09  0.9118800E+02  0.7818608E-02  0.1180000E+00
       11   -1    0    0    0    0  0.00000000000E+00  0.00000000000E+00  0.39999999673E+01  0.40000000000E+01  0.51109989000E-03 0. -1.
     -623   -1    0    0    0    0  0.00000000000E+00  0.00000000000E+00  0.12525980253E-10  0.17130000000E+03  0.17130000000E+03 0. -1.
       11    1    1    2    0    0 -0.19927505187E-02 -0.28540128789E-02  0.34102292000E+00  0.34104106736E+00  0.51109989000E-03 0. -1.
     -623    1    1    2    0    0 -0.70560006797E-04 -0.89132097065E-05  0.30885284630E-04  0.17130000000E+03  0.17130000000E+03 0. -1.
      622    1    1    2    0    0  0.20633105255E-02  0.28629260886E-02  0.36589461621E+01  0.36589589326E+01  0.90000000000E-02 0. -1.
</event>
<event>
 5   0  0.6135700E+09  0.9118800E+02  0.7818608E-02  0.1180000E+00
       11   -1    0    0    0    0  0.00000000000E+00  0.00000000000E+00  0.39999999673E+01  0.40000000000E+01  0.51109989000E-03 0.  1.
     -623   -1    0    0    0    0  0.00000000000E+00  0.00000000000E+00  0.12525980253E-10  0.17130000000E+03  0.17130000000E+03 0.  1.
       11    1    1    2    0    0  0.13294647434E-03 -0.67991614379E-02  0.74413012206E+00  0.74416137097E+00  0.51109989000E-03 0.  1.
     -623    1    1    2    0    0 -0.12515040501E-02  0.32696669116E-03  0.50285507395E-04  0.17130000000E+03  0.17130000000E+03 0.  1.
      622    1    1    2    0    0  0.11185575765E-02  0.64721947466E-02  0.32558195619E+01  0.32558386263E+01  0.90000000000E-02 0.  1.
</event>
<event>
 5   0  0.6135700E+09  0.9118800E+02  0.7818608E-02  0.1180000E+00
       11   -1    0    0    0    0  0.00000000000E+00  0.00000000000E+00  0.39999999673E+01  0.40000000000E+01  0.51109989000E-03 0.  1.
     -623   -1    0    0    0    0  0.00000000000E+00  0.00000000000E+00  0.12525980253E-10  0.17130000000E+03  0.17130000000E+03 0.  1.
       11    1    1    2    0    0 -0.71137077954E-03 -0.13639726030E-02  0.19395945748E+00  0.19396623118E+00  0.51109989000E-03 0.  1.
     -623    1    1    2    0    0  0.23691115270E-03 -0.34346277316E-04  0.17668682619E-04  0.17130000000E+03  0.17130000000E+03 0.  1.
      622    1    1    2    0    0  0.47445962683E-03  0.13983188804E-02  0.38060228412E+01  0.38060337687E+01  0.90000000000E-02 0.  1.
</event>
<event>
 5   0  0.6135700E+09  0.9118800E+02  0.7818608E-02  0.1180000E+00
       11   -1    0    0    0    0  0.00000000000E+00  0.00000000000E+00  0.39999999673E+01  0.40000000000E+01  0.51109989000E-03 0.  1.
     -623   -1    0    0    0    0  0.00000000000E+00  0.00000000000E+00  0.12525980253E-10  0.17130000000E+03  0.17130000000E+03 0. -1.
       11    1    1    2    0    0  0.11037036599E-01  0.60964724644E-02  0.90228505935E+00  0.90237330008E+00  0.51109989000E-03 0.  1.
     -623    1    1    2    0    0  0.48291462436E-05  0.16825862117E-03  0.12729801758E-03  0.17130000000E+03  0.17130000000E+03 0. -1.
      622    1    1    2    0    0 -0.11041865745E-01 -0.62647310855E-02  0.30975876079E+01  0.30976266977E+01  0.90000000000E-02 0.  0.
</event>
<event>
 5   0  0.6135700E+09  0.9118800E+02  0.7818608E-02  0.1180000E+00
       11   -1    0    0    0    0  0.00000000000E+00  0.00000000000E+00  0.39999999673E+01  0.40000000000E+01  0.51109989000E-03 0.  1.
     -623   -1    0    0    0    0  0.00000000000E+00  0.00000000000E+00  0.12525980253E-10  0.17130000000E+03  0.17130000000E+03 0. -1.
       11    1    1    2    0    0  0.51587203887E-03  0.19106689911E-02  0.13730948372E+00  0.13732469670E+00  0.51109989000E-03 0.  1.
     -623    1    1    2    0    0 -0.10682094812E-02 -0.41717352124E-03  0.25997370878E-04  0.17130000000E+03  0.17130000000E+03 0. -1.
      622    1    1    2    0    0  0.55233744318E-03 -0.14934954695E-02  0.38626644896E+01  0.38626753028E+01  0.90000000000E-02 0.  1.
</event>
<event>
 5   0  0.6135700E+09  0.9118800E+02  0.7818608E-02  0.1180000E+00
       11   -1    0    0    0    0  0.00000000000E+00  0.00000000000E+00  0.39999999673E+01  0.40000000000E+01  0.51109989000E-03 0.  1.
     -623   -1    0    0    0    0  0.00000000000E+00  0.00000000000E+00  0.12525980253E-10  0.17130000000E+03  0.17130000000E+03 0.  1.
       11    1    1    2    0    0  0.16968642928E-03 -0.97357443168E-03  0.10442444022E+00  0.10443036713E+00  0.51109989000E-03 0.  1.
     -623    1    1    2    0    0 -0.10805528182E-04  0.74836365689E-06  0.16415421345E-04  0.17130000000E+03  0.17130000000E+03 0.  1.
      622    1    1    2    0    0 -0.15888090104E-03  0.97282606802E-03  0.38955591315E+01  0.38955696527E+01  0.90000000000E-02 0.  1.
</event>
<event>
 5   0  0.6135700E+09  0.9118800E+02  0.7818608E-02  0.1180000E+00
       11   -1    0    0    0    0  0.00000000000E+00  0.00000000000E+00  0.39999999673E+01  0.40000000000E+01  0.51109989000E-03 0.  1.
     -623   -1    0    0    0    0  0.00000000000E+00  0.00000000000E+00  0.12525980253E-10  0.17130000000E+03  0.17130000000E+03 0.  1.
       11    1    1    2    0    0 -0.18660143441E-02 -0.19285292893E-02  0.11644594590E+01  0.11644626632E+01  0.51109989000E-03 0.  1.
     -623    1    1    2    0    0  0.33041548643E-03 -0.23323175183E-04  0.18542571545E-04  0.17130000000E+03  0.17130000000E+03 0.  1.
      622    1    1    2    0    0  0.15355988564E-02  0.19518524646E-02  0.28355219812E+01  0.28355373519E+01  0.90000000000E-02 0.  1.
</event>
<event>
 5   0  0.6135700E+09  0.9118800E+02  0.7818608E-02  0.1180000E+00
       11   -1    0    0    0    0  0.00000000000E+00  0.00000000000E+00  0.39999999673E+01  0.40000000000E+01  0.51109989000E-03 0.  1.
     -623   -1    0    0    0    0  0.00000000000E+00  0.00000000000E+00  0.12525980253E-10  0.17130000000E+03  0.17130000000E+03 0.  1.
       11    1    1    2    0    0  0.19224755709E-02  0.85594522829E-03  0.49091124472E+00  0.49091602130E+00  0.51109989000E-03 0.  1.
     -623    1    1    2    0    0 -0.50842197795E-03 -0.49509342421E-05  0.16674285671E-04  0.17130000000E+03  0.17130000000E+03 0.  1.
      622    1    1    2    0    0 -0.14140535929E-02 -0.85099429405E-03  0.35090720484E+01  0.35090839779E+01  0.90000000000E-02 0.  1.
</event>
<event>
 5   0  0.6135700E+09  0.9118800E+02  0.7818608E-02  0.1180000E+00
       11   -1    0    0    0    0  0.00000000000E+00  0.00000000000E+00  0.39999999673E+01  0.40000000000E+01  0.51109989000E-03 0. -1.
     -623   -1    0    0    0    0  0.00000000000E+00  0.00000000000E+00  0.12525980253E-10  0.17130000000E+03  0.17130000000E+03 0.  1.
       11    1    1    2    0    0  0.29547969182E-03 -0.70507389036E-03  0.17520040265E+00  0.17520281604E+00  0.51109989000E-03 0. -1.
     -623    1    1    2    0    0 -0.86972475798E-04 -0.11675970690E-03  0.13063596766E-04  0.17130000000E+03  0.17130000000E+03 0.  1.
      622    1    1    2    0    0 -0.20850721602E-03  0.82183359727E-03  0.38247865011E+01  0.38247971839E+01  0.90000000000E-02 0. -1.
</event>
<event>
 5   0  0.6135700E+09  0.9118800E+02  0.7818608E-02  0.1180000E+00
       11   -1    0    0    0    0  0.00000000000E+00  0.00000000000E+00  0.39999999673E+01  0.40000000000E+01  0.51109989000E-03 0.  1.
     -623   -1    0    0    0    0  0.00000000000E+00  0.00000000000E+00  0.12525980253E-10  0.17130000000E+03  0.17130000000E+03 0. -1.
       11    1    1    2    0    0 -0.80464694009E-02 -0.11231518497E-02  0.22783890855E+00  0.22798429028E+00  0.51109989000E-03 0.  1.
     -623    1    1    2    0    0  0.20200074526E-02  0.13783701429E-02  0.16092641660E-03  0.17130000002E+03  0.17130000000E+03 0. -1.
      622    1    1    2    0    0  0.60264619476E-02 -0.25521829367E-03  0.37720001337E+01  0.37720156935E+01  0.90000000000E-02 0.  0.
</event>
<event>
 5   0  0.6135700E+09  0.9118800E+02  0.7818608E-02  0.1180000E+00
       11   -1    0    0    0    0  0.00000000000E+00  0.00000000000E+00  0.39999999673E+01  0.40000000000E+01  0.51109989000E-03 0.  1.
     -623   -1    0    0    0    0  0.00000000000E+00  0.00000000000E+00  0.12525980253E-10  0.17130000000E+03  0.17130000000E+03 0. -1.
       11    1    1    2    0    0  0.33052927747E-03  0.60406206206E-03  0.26433298163E-01  0.26447204303E-01  0.51109989000E-03 0.  1.
     -623    1    1    2    0    0  0.17768785176E-03 -0.10956033291E-04  0.24142762419E-04  0.17130000000E+03  0.17130000000E+03 0. -1.
      622    1    1    2    0    0 -0.50821712963E-03 -0.59310602875E-03  0.39735425352E+01  0.39735528043E+01  0.90000000000E-02 0.  1.
</event>
<event>
 5   0  0.6135700E+09  0.9118800E+02  0.7818608E-02  0.1180000E+00
       11   -1    0    0    0    0  0.00000000000E+00  0.00000000000E+00  0.39999999673E+01  0.40000000000E+01  0.51109989000E-03 0.  1.
     -623   -1    0    0    0    0  0.00000000000E+00  0.00000000000E+00  0.12525980253E-10  0.17130000000E+03  0.17130000000E+03 0.  1.
       11    1    1    2    0    0  0.87108015474E-03  0.12636848921E-02  0.71233627336E-01  0.71251993407E-01  0.51109989000E-03 0.  1.
     -623    1    1    2    0    0 -0.18948079672E-02 -0.13848939073E-02  0.28793400088E-04  0.17130000002E+03  0.17130000000E+03 0.  1.
      622    1    1    2    0    0  0.10237278125E-02  0.12120901516E-03  0.39287375466E+01  0.39287479905E+01  0.90000000000E-02 0.  1.
</event>
<event>
 5   0  0.6135700E+09  0.9118800E+02  0.7818608E-02  0.1180000E+00
       11   -1    0    0    0    0  0.00000000000E+00  0.00000000000E+00  0.39999999673E+01  0.40000000000E+01  0.51109989000E-03 0.  1.
     -623   -1    0    0    0    0  0.00000000000E+00  0.00000000000E+00  0.12525980253E-10  0.17130000000E+03  0.17130000000E+03 0. -1.
       11    1    1    2    0    0 -0.24975921182E-02  0.87338588703E-02  0.41424405356E+00  0.41434395783E+00  0.51109989000E-03 0.  1.
     -623    1    1    2    0    0 -0.16701551349E-02 -0.18598464747E-03  0.12378583840E-03  0.17130000001E+03  0.17130000000E+03 0. -1.
      622    1    1    2    0    0  0.41677472530E-02 -0.85478742229E-02  0.35856321280E+01  0.35856560339E+01  0.90000000000E-02 0.  1.
</event>
<event>
 5   0  0.6135700E+09  0.9118800E+02  0.7818608E-02  0.1180000E+00
       11   -1    0    0    0    0  0.00000000000E+00  0.00000000000E+00  0.39999999673E+01  0.40000000000E+01  0.51109989000E-03 0.  1.
     -623   -1    0    0    0    0  0.00000000000E+00  0.00000000000E+00  0.12525980253E-10  0.17130000000E+03  0.17130000000E+03 0. -1.
       11    1    1    2    0    0 -0.41182717360E-02 -0.15964663410E-02  0.24740692175E+00  0.24744687312E+00  0.51109989000E-03 0.  1.
     -623    1    1    2    0    0  0.51273943702E-02 -0.64529073862E-03  0.51594658464E-04  0.17130000008E+03  0.17130000000E+03 0. -1.
      622    1    1    2    0    0 -0.10091226378E-02  0.22417570801E-02  0.37525414538E+01  0.37525530518E+01  0.90000000000E-02 0.  1.
</event>
<event>
 5   0  0.6135700E+09  0.9118800E+02  0.7818608E-02  0.1180000E+00
       11   -1    0    0    0    0  0.00000000000E+00  0.00000000000E+00  0.39999999673E+01  0.40000000000E+01  0.51109989000E-03 0. -1.
     -623   -1    0    0    0    0  0.00000000000E+00  0.00000000000E+00  0.12525980253E-10  0.17130000000E+03  0.17130000000E+03 0.  1.
       11    1    1    2    0    0  0.13647254793E-01 -0.79461198529E-03  0.96578007899E+00  0.96587695964E+00  0.51109989000E-03 0. -1.
     -623    1    1    2    0    0 -0.42443775714E-02  0.65395139186E-02  0.13038257531E-03  0.17130000018E+03  0.17130000000E+03 0.  1.
      622    1    1    2    0    0 -0.94028772191E-02 -0.57449019366E-02  0.30340895078E+01  0.30341228649E+01  0.90000000000E-02 0. -1.
</event>
<event>
 5   0  0.6135700E+09  0.9118800E+02  0.7818608E-02  0.1180000E+00
       11   -1    0    0    0    0  0.00000000000E+00  0.00000000000E+00  0.39999999673E+01  0.40000000000E+01  0.51109989000E-03 0.  1.
     -623   -1    0    0    0    0  0.00000000000E+00  0.00000000000E+00  0.12525980253E-10  0.17130000000E+03  0.17130000000E+03 0.  1.
       11    1    1    2    0    0 -0.62863954181E-03 -0.30403103582E-04  0.16346054138E+00  0.16346255205E+00  0.51109989000E-03 0.  1.
     -623    1    1    2    0    0  0.11260347943E-03  0.96429952227E-04  0.12569771970E-04  0.17130000000E+03  0.17130000000E+03 0.  1.
      622    1    1    2    0    0  0.51603606239E-03 -0.66026848645E-04  0.38365268562E+01  0.38365374479E+01  0.90000000000E-02 0.  1.
</event>
<event>
 5   0  0.6135700E+09  0.9118800E+02  0.7818608E-02  0.1180000E+00
       11   -1    0    0    0    0  0.00000000000E+00  0.00000000000E+00  0.39999999673E+01  0.40000000000E+01  0.51109989000E-03 0.  1.
     -623   -1    0    0    0    0  0.00000000000E+00  0.00000000000E+00  0.12525980253E-10  0.17130000000E+03  0.17130000000E+03 0.  1.
       11    1    1    2    0    0  0.13124670146E-01 -0.23080812710E-02  0.73370142805E+00  0.73382261545E+00  0.51109989000E-03 0.  1.
     -623    1    1    2    0    0 -0.45090866859E-02 -0.15869143098E-02  0.14730705569E-03  0.17130000007E+03  0.17130000000E+03 0.  1.
      622    1    1    2    0    0 -0.86155834579E-02  0.38949955815E-02  0.32661512340E+01  0.32661773196E+01  0.90000000000E-02 0.  1.
</event>
<event>
 5   0  0.6135700E+09  0.9118800E+02  0.7818608E-02  0.1180000E+00
       11   -1    0    0    0    0  0.00000000000E+00  0.00000000000E+00  0.39999999673E+01  0.40000000000E+01  0.51109989000E-03 0.  1.
     -623   -1    0    0    0    0  0.00000000000E+00  0.00000000000E+00  0.12525980253E-10  0.17130000000E+03  0.17130000000E+03 0.  1.
       11    1    1    2    0    0 -0.15857867959E-02  0.12077724665E-02  0.61745749842E+00  0.61746092751E+00  0.51109989000E-03 0.  1.
     -623    1    1    2    0    0  0.73404647458E-03  0.12732077364E-02  0.16393135712E-04  0.17130000001E+03  0.17130000000E+03 0.  1.
      622    1    1    2    0    0  0.85174032133E-03 -0.24809802029E-02  0.33825260758E+01  0.33825390662E+01  0.90000000000E-02 0.  1.
</event>
<event>
 5   0  0.6135700E+09  0.9118800E+02  0.7818608E-02  0.1180000E+00
       11   -1    0    0    0    0  0.00000000000E+00  0.00000000000E+00  0.39999999673E+01  0.40000000000E+01  0.51109989000E-03 0. -1.
     -623   -1    0    0    0    0  0.00000000000E+00  0.00000000000E+00  0.12525980253E-10  0.17130000000E+03  0.17130000000E+03 0. -1.
       11    1    1    2    0    0 -0.29315352382E-03  0.10508043898E-02  0.64987914196E+00  0.64988025859E+00  0.51109989000E-03 0. -1.
     -623    1    1    2    0    0  0.58159434148E-04 -0.51852369438E-04  0.13330329394E-04  0.17130000000E+03  0.17130000000E+03 0. -1.
      622    1    1    2    0    0  0.23499408955E-03 -0.99895202028E-03  0.33501075033E+01  0.33501197496E+01  0.90000000000E-02 0. -1.
</event>
<event>
 5   0  0.6135700E+09  0.9118800E+02  0.7818608E-02  0.1180000E+00
       11   -1    0    0    0    0  0.00000000000E+00  0.00000000000E+00  0.39999999673E+01  0.40000000000E+01  0.51109989000E-03 0. -1.
     -623   -1    0    0    0    0  0.00000000000E+00  0.00000000000E+00  0.12525980253E-10  0.17130000000E+03  0.17130000000E+03 0. -1.
       11    1    1    2    0    0  0.77948784524E-03 -0.59768108216E-03  0.35454422805E+00  0.35454595709E+00  0.51109989000E-03 0. -1.
     -623    1    1    2    0    0  0.12126486136E-03  0.30769274685E-03  0.12929283592E-04  0.17130000000E+03  0.17130000000E+03 0. -1.
      622    1    1    2    0    0 -0.90075270782E-03  0.28998833224E-03  0.36454428500E+01  0.36454540825E+01  0.90000000000E-02 0. -1.
</event>
<event>
 5   0  0.6135700E+09  0.9118800E+02  0.7818608E-02  0.1180000E+00
       11   -1    0    0    0    0  0.00000000000E+00  0.00000000000E+00  0.39999999673E+01  0.40000000000E+01  0.51109989000E-03 0.  1.
     -623   -1    0    0    0    0  0.00000000000E+00  0.00000000000E+00  0.12525980253E-10  0.17130000000E+03  0.17130000000E+03 0. -1.
       11    1    1    2    0    0  0.58834509891E-03  0.42530785183E-03  0.52461343353E-01  0.52468855583E-01  0.51109989000E-03 0.  1.
     -623    1    1    2    0    0 -0.25038179335E-04 -0.81829284661E-04  0.17794337654E-04  0.17130000000E+03  0.17130000000E+03 0. -1.
      622    1    1    2    0    0 -0.56330691945E-03 -0.34347856677E-03  0.39475208493E+01  0.39475311640E+01  0.90000000000E-02 0.  1.
</event>
<event>
 5   0  0.6135700E+09  0.9118800E+02  0.7818608E-02  0.1180000E+00
       11   -1    0    0    0    0  0.00000000000E+00  0.00000000000E+00  0.39999999673E+01  0.40000000000E+01  0.51109989000E-03 0.  1.
     -623   -1    0    0    0    0  0.00000000000E+00  0.00000000000E+00  0.12525980253E-10  0.17130000000E+03  0.17130000000E+03 0. -1.
       11    1    1    2    0    0  0.72247240400E-03  0.11795544023E-02  0.14317939058E+00  0.14318698413E+00  0.51109989000E-03 0.  1.
     -623    1    1    2    0    0  0.34297721793E-04 -0.46876664980E-04  0.18302403532E-04  0.17130000000E+03  0.17130000000E+03 0. -1.
      622    1    1    2    0    0 -0.75677012579E-03 -0.11326777373E-02  0.38568022744E+01  0.38568130159E+01  0.90000000000E-02 0.  1.
</event>
<event>
 5   0  0.6135700E+09  0.9118800E+02  0.7818608E-02  0.1180000E+00
       11   -1    0    0    0    0  0.00000000000E+00  0.00000000000E+00  0.39999999673E+01  0.40000000000E+01  0.51109989000E-03 0.  1.
     -623   -1    0    0    0    0  0.00000000000E+00  0.00000000000E+00  0.12525980253E-10  0.17130000000E+03  0.17130000000E+03 0. -1.
       11    1    1    2    0    0  0.14447567483E-02 -0.61224263796E-02  0.57348946107E+00  0.57352418834E+00  0.51109989000E-03 0.  1.
     -623    1    1    2    0    0 -0.24346279764E-03  0.50886337183E-02  0.46956667840E-04  0.17130000008E+03  0.17130000000E+03 0. -1.
      622    1    1    2    0    0 -0.12012939501E-02  0.10337926502E-02  0.34264635584E+01  0.34264757447E+01  0.90000000000E-02 0.  0.
</event>
<event>
 5   0  0.6135700E+09  0.9118800E+02  0.7818608E-02  0.1180000E+00
       11   -1    0    0    0    0  0.00000000000E+00  0.00000000000E+00  0.39999999673E+01  0.40000000000E+01  0.51109989000E-03 0.  1.
     -623   -1    0    0    0    0  0.00000000000E+00  0.00000000000E+00  0.12525980253E-10  0.17130000000E+03  0.17130000000E+03 0.  1.
       11    1    1    2    0    0 -0.66999532785E-03  0.10820165170E-02  0.25054363757E+00  0.25054739114E+00  0.51109989000E-03 0.  1.
     -623    1    1    2    0    0  0.13323389214E-02 -0.12106377036E-02  0.14592682831E-04  0.17130000001E+03  0.17130000000E+03 0.  1.
      622    1    1    2    0    0 -0.66234359487E-03  0.12862118782E-03  0.37494417410E+01  0.37494526033E+01  0.90000000000E-02 0.  1.
</event>
<event>
 5   0  0.6135700E+09  0.9118800E+02  0.7818608E-02  0.1180000E+00
       11   -1    0    0    0    0  0.00000000000E+00  0.00000000000E+00  0.39999999673E+01  0.40000000000E+01  0.51109989000E-03 0.  1.
     -623   -1    0    0    0    0  0.00000000000E+00  0.00000000000E+00  0.12525980253E-10  0.17130000000E+03  0.17130000000E+03 0. -1.
       11    1    1    2    0    0 -0.35837372982E-02 -0.60861906700E-02  0.24413335716E+00  0.24423603786E+00  0.51109989000E-03 0.  1.
     -623    1    1    2    0    0  0.82609557632E-04  0.31496005830E-02  0.11624044497E-03  0.17130000003E+03  0.17130000000E+03 0. -1.
      622    1    1    2    0    0  0.35011277405E-02  0.29365900870E-02  0.37557503698E+01  0.37557639331E+01  0.90000000000E-02 0.  1.
</event>
<event>
 5   0  0.6135700E+09  0.9118800E+02  0.7818608E-02  0.1180000E+00
       11   -1    0    0    0    0  0.00000000000E+00  0.00000000000E+00  0.39999999673E+01  0.40000000000E+01  0.51109989000E-03 0.  1.
     -623   -1    0    0    0    0  0.00000000000E+00  0.00000000000E+00  0.12525980253E-10  0.17130000000E+03  0.17130000000E+03 0. -1.
       11    1    1    2    0    0  0.20846709093E-02  0.54279851541E-02  0.19402368827E+00  0.19411146722E+00  0.51109989000E-03 0.  1.
     -623    1    1    2    0    0  0.11370033924E-02 -0.10761825772E-02  0.10224650721E-03  0.17130000001E+03  0.17130000000E+03 0. -1.
      622    1    1    2    0    0 -0.32216743017E-02 -0.43518025770E-02  0.38058740326E+01  0.38058885256E+01  0.90000000000E-02 0.  1.
</event>
<event>
 5   0  0.6135700E+09  0.9118800E+02  0.7818608E-02  0.1180000E+00
       11   -1    0    0    0    0  0.00000000000E+00  0.00000000000E+00  0.39999999673E+01  0.40000000000E+01  0.51109989000E-03 0.  1.
     -623   -1    0    0    0    0  0.00000000000E+00  0.00000000000E+00  0.12525980253E-10  0.17130000000E+03  0.17130000000E+03 0.  1.
       11    1    1    2    0    0 -0.28457538290E-03  0.38190191147E-03  0.29504074543E-01  0.29512344366E-01  0.51109989000E-03 0.  1.
     -623    1    1    2    0    0  0.46834197024E-03 -0.54626574126E-03  0.18446620906E-04  0.17130000000E+03  0.17130000000E+03 0.  1.
      622    1    1    2    0    0 -0.18376658763E-03  0.16436383013E-03  0.39704774487E+01  0.39704876566E+01  0.90000000000E-02 0.  1.
</event>
<event>
 5   0  0.6135700E+09  0.9118800E+02  0.7818608E-02  0.1180000E+00
       11   -1    0    0    0    0  0.00000000000E+00  0.00000000000E+00  0.39999999673E+01  0.40000000000E+01  0.51109989000E-03 0. -1.
     -623   -1    0    0    0    0  0.00000000000E+00  0.00000000000E+00  0.12525980253E-10  0.17130000000E+03  0.17130000000E+03 0.  1.
       11    1    1    2    0    0  0.49607003097E-04  0.18843090897E-03  0.35086516511E-01  0.35090779858E-01  0.51109989000E-03 0. -1.
     -623    1    1    2    0    0 -0.12826016069E-03 -0.15307568714E-03  0.14446384255E-04  0.17130000000E+03  0.17130000000E+03 0.  1.
      622    1    1    2    0    0  0.78653158359E-04 -0.35355220914E-04  0.39648990284E+01  0.39649092440E+01  0.90000000000E-02 0. -1.
</event>
<event>
 5   0  0.6135700E+09  0.9118800E+02  0.7818608E-02  0.1180000E+00
       11   -1    0    0    0    0  0.00000000000E+00  0.00000000000E+00  0.39999999673E+01  0.40000000000E+01  0.51109989000E-03 0. -1.
     -623   -1    0    0    0    0  0.00000000000E+00  0.00000000000E+00  0.12525980253E-10  0.17130000000E+03  0.17130000000E+03 0. -1.
       11    1    1    2    0    0 -0.87715208932E-03  0.15554723815E-02  0.50932366986E-02  0.54213625420E-02  0.51109989000E-03 0. -1.
     -623    1    1    2    0    0  0.91543152915E-03  0.62403290490E-03  0.33883064678E-03  0.17130000000E+03  0.17130000000E+03 0. -1.
      622    1    1    2    0    0 -0.38279439831E-04 -0.21795052864E-02  0.39945679000E+01  0.39945786335E+01  0.90000000000E-02 0. -1.
</event>
<event>
 5   0  0.6135700E+09  0.9118800E+02  0.7818608E-02  0.1180000E+00
       11   -1    0    0    0    0  0.00000000000E+00  0.00000000000E+00  0.39999999673E+01  0.40000000000E+01  0.51109989000E-03 0.  1.
     -623   -1    0    0    0    0  0.00000000000E+00  0.00000000000E+00  0.12525980253E-10  0.17130000000E+03  0.17130000000E+03 0. -1.
       11    1    1    2    0    0  0.13391511253E-03  0.11839443112E-02  0.14240305096E+00  0.14240895268E+00  0.51109989000E-03 0.  1.
     -623    1    1    2    0    0  0.11158872814E-02 -0.37148442226E-02  0.17444490071E-04  0.17130000004E+03  0.17130000000E+03 0. -1.
      622    1    1    2    0    0 -0.12498023940E-02  0.25308999114E-02  0.38575794719E+01  0.38575910034E+01  0.90000000000E-02 0.  1.
</event>
<event>
 5   0  0.6135700E+09  0.9118800E+02  0.7818608E-02  0.1180000E+00
       11   -1    0    0    0    0  0.00000000000E+00  0.00000000000E+00  0.39999999673E+01  0.40000000000E+01  0.51109989000E-03 0.  1.
     -623   -1    0    0    0    0  0.00000000000E+00  0.00000000000E+00  0.12525980253E-10  0.17130000000E+03  0.17130000000E+03 0. -1.
       11    1    1    2    0    0 -0.76942027152E-03 -0.15016762142E-02  0.82697636062E+00  0.82697823991E+00  0.51109989000E-03 0.  1.
     -623    1    1    2    0    0 -0.50380938567E-04 -0.22243334404E-04  0.15082398928E-04  0.17130000000E+03  0.17130000000E+03 0. -1.
      622    1    1    2    0    0  0.81980121008E-03  0.15239195486E-02  0.31730085243E+01  0.31730217601E+01  0.90000000000E-02 0.  1.
</event>
<event>
 5   0  0.6135700E+09  0.9118800E+02  0.7818608E-02  0.1180000E+00
       11   -1    0    0    0    0  0.00000000000E+00  0.00000000000E+00  0.39999999673E+01  0.40000000000E+01  0.51109989000E-03 0. -1.
     -623   -1    0    0    0    0  0.00000000000E+00  0.00000000000E+00  0.12525980253E-10  0.17130000000E+03  0.17130000000E+03 0.  1.
       11    1    1    2    0    0  0.11163027873E-02 -0.34931723003E-03  0.25903834688E-01  0.25935266127E-01  0.51109989000E-03 0. -1.
     -623    1    1    2    0    0  0.11661245671E-03  0.90692063482E-04  0.41789623768E-04  0.17130000000E+03  0.17130000000E+03 0.  1.
      622    1    1    2    0    0 -0.12329152442E-02  0.25862516640E-03  0.39740543496E+01  0.39740647404E+01  0.90000000000E-02 0. -1.
</event>
<event>
 5   0  0.6135700E+09  0.9118800E+02  0.7818608E-02  0.1180000E+00
       11   -1    0    0    0    0  0.00000000000E+00  0.00000000000E+00  0.39999999673E+01  0.40000000000E+01  0.51109989000E-03 0.  1.
     -623   -1    0    0    0    0  0.00000000000E+00  0.00000000000E+00  0.12525980253E-10  0.17130000000E+03  0.17130000000E+03 0.  1.
       11    1    1    2    0    0 -0.86036084987E-03  0.16035751475E-03  0.74156267269E-01  0.74163192560E-01  0.51109989000E-03 0.  1.
     -623    1    1    2    0    0  0.15203331717E-03  0.39270296380E-03  0.17312312876E-04  0.17130000000E+03  0.17130000000E+03 0.  1.
      622    1    1    2    0    0  0.70832753270E-03 -0.55306047855E-03  0.39258263878E+01  0.39258368069E+01  0.90000000000E-02 0.  1.
</event>
<event>
 5   0  0.6135700E+09  0.9118800E+02  0.7818608E-02  0.1180000E+00
       11   -1    0    0    0    0  0.00000000000E+00  0.00000000000E+00  0.39999999673E+01  0.40000000000E+01  0.51109989000E-03 0. -1.
     -623   -1    0    0    0    0  0.00000000000E+00  0.00000000000E+00  0.12525980253E-10  0.17130000000E+03  0.17130000000E+03 0. -1.
       11    1    1    2    0    0 -0.46633091048E-02  0.35832873256E-02  0.84810465653E+00  0.84812520069E+00  0.51109989000E-03 0. -1.
     -623    1    1    2    0    0  0.92721109170E-03  0.34373136720E-03  0.38024627768E-04  0.17130000000E+03  0.17130000000E+03 0. -1.
      622    1    1    2    0    0  0.37360980131E-02 -0.39270186928E-02  0.31518572862E+01  0.31518747965E+01  0.90000000000E-02 0. -1.
</event>
<event>
 5   0  0.6135700E+09  0.9118800E+02  0.7818608E-02  0.1180000E+00
       11   -1    0    0    0    0  0.00000000000E+00  0.00000000000E+00  0.39999999673E+01  0.40000000000E+01  0.51109989000E-03 0.  1.
     -623   -1    0    0    0    0  0.00000000000E+00  0.00000000000E+00  0.12525980253E-10  0.17130000000E+03  0.17130000000E+03 0.  1.
       11    1    1    2    0    0  0.39132312986E-03 -0.18320440013E-02  0.26181889634E+00  0.26182609729E+00  0.51109989000E-03 0.  1.
     -623    1    1    2    0    0 -0.26362627813E-03 -0.89809471376E-04  0.18498931342E-04  0.17130000000E+03  0.17130000000E+03 0.  1.
      622    1    1    2    0    0 -0.12769685313E-03  0.19218534722E-02  0.37381625510E+01  0.37381738814E+01  0.90000000000E-02 0.  1.
</event>
<event>
 5   0  0.6135700E+09  0.9118800E+02  0.7818608E-02  0.1180000E+00
       11   -1    0    0    0    0  0.00000000000E+00  0.00000000000E+00  0.39999999673E+01  0.40000000000E+01  0.51109989000E-03 0.  1.
     -623   -1    0    0    0    0  0.00000000000E+00  0.00000000000E+00  0.12525980253E-10  0.17130000000E+03  0.17130000000E+03 0. -1.
       11    1    1    2    0    0 -0.56168185659E-02  0.14136074108E-02  0.57663730213E+00  0.57666661631E+00  0.51109989000E-03 0.  1.
     -623    1    1    2    0    0 -0.33564554646E-04 -0.56253475198E-04  0.46044388811E-04  0.17130000000E+03  0.17130000000E+03 0. -1.
      622    1    1    2    0    0  0.56503831205E-02 -0.13573539356E-02  0.34233166208E+01  0.34233333837E+01  0.90000000000E-02 0.  1.
</event>
<event>
 5   0  0.6135700E+09  0.9118800E+02  0.7818608E-02  0.1180000E+00
       11   -1    0    0    0    0  0.00000000000E+00  0.00000000000E+00  0.39999999673E+01  0.40000000000E+01  0.51109989000E-03 0.  1.
     -623   -1    0    0    0    0  0.00000000000E+00  0.00000000000E+00  0.12525980253E-10  0.17130000000E+03  0.17130000000E+03 0.  1.
       11    1    1    2    0    0 -0.64369596289E-03 -0.20291460501E-02  0.19490519900E+00  0.19491749433E+00  0.51109989000E-03 0.  1.
     -623    1    1    2    0    0 -0.44856471259E-03  0.15154647620E-02  0.23105099627E-04  0.17130000001E+03  0.17130000000E+03 0.  1.
      622    1    1    2    0    0  0.10922606755E-02  0.51368128810E-03  0.38050716633E+01  0.38050824984E+01  0.90000000000E-02 0.  1.
</event>
<event>
 5   0  0.6135700E+09  0.9118800E+02  0.7818608E-02  0.1180000E+00
       11   -1    0    0    0    0  0.00000000000E+00  0.00000000000E+00  0.39999999673E+01  0.40000000000E+01  0.51109989000E-03 0.  1.
     -623   -1    0    0    0    0  0.00000000000E+00  0.00000000000E+00  0.12525980253E-10  0.17130000000E+03  0.17130000000E+03 0.  1.
       11    1    1    2    0    0 -0.43251544558E-03 -0.34582334438E-02  0.35117397540E+00  0.35119164094E+00  0.51109989000E-03 0.  1.
     -623    1    1    2    0    0  0.13506016442E-02 -0.21407163535E-03  0.30701379472E-04  0.17130000001E+03  0.17130000000E+03 0.  1.
      622    1    1    2    0    0 -0.91808619864E-03  0.36723050792E-02  0.36487952906E+01  0.36488083536E+01  0.90000000000E-02 0.  1.
</event>
<event>
 5   0  0.6135700E+09  0.9118800E+02  0.7818608E-02  0.1180000E+00
       11   -1    0    0    0    0  0.00000000000E+00  0.00000000000E+00  0.39999999673E+01  0.40000000000E+01  0.51109989000E-03 0. -1.
     -623   -1    0    0    0    0  0.00000000000E+00  0.00000000000E+00  0.12525980253E-10  0.17130000000E+03  0.17130000000E+03 0. -1.
       11    1    1    2    0    0 -0.19113693679E-02 -0.50013033874E-02  0.79856058131E+00  0.79857869344E+00  0.51109989000E-03 0. -1.
     -623    1    1    2    0    0 -0.45179927296E-03  0.66088955140E-03  0.34546553580E-04  0.17130000000E+03  0.17130000000E+03 0. -1.
      622    1    1    2    0    0  0.23631686408E-02  0.43404138360E-02  0.32014048395E+01  0.32014213047E+01  0.90000000000E-02 0. -1.
</event>
<event>
 5   0  0.6135700E+09  0.9118800E+02  0.7818608E-02  0.1180000E+00
       11   -1    0    0    0    0  0.00000000000E+00  0.00000000000E+00  0.39999999673E+01  0.40000000000E+01  0.51109989000E-03 0. -1.
     -623   -1    0    0    0    0  0.00000000000E+00  0.00000000000E+00  0.12525980253E-10  0.17130000000E+03  0.17130000000E+03 0.  1.
       11    1    1    2    0    0  0.79725260521E-03 -0.98793040872E-03  0.14301805477E+00  0.14302460219E+00  0.51109989000E-03 0. -1.
     -623    1    1    2    0    0 -0.28491879899E-03  0.12958975438E-02  0.17066711702E-04  0.17130000001E+03  0.17130000000E+03 0.  1.
      622    1    1    2    0    0 -0.51233380382E-03 -0.30796714599E-03  0.38569648796E+01  0.38569754264E+01  0.90000000000E-02 0. -1.
</event>
<event>
 5   0  0.6135700E+09  0.9118800E+02  0.7818608E-02  0.1180000E+00
       11   -1    0    0    0    0  0.00000000000E+00  0.00000000000E+00  0.39999999673E+01  0.40000000000E+01  0.51109989000E-03 0.  1.
     -623   -1    0    0    0    0  0.00000000000E+00  0.00000000000E+00  0.12525980253E-10  0.17130000000E+03  0.17130000000E+03 0. -1.
       11    1    1    2    0    0  0.11034120711E-02  0.56913719925E-03  0.12539352080E+00  0.12540070859E+00  0.51109989000E-03 0. -1.
     -623    1    1    2    0    0 -0.45187319056E-04 -0.76709549828E-04  0.17783691413E-04  0.17130000000E+03  0.17130000000E+03 0. -1.
      622    1    1    2    0    0 -0.10582247521E-02 -0.49242764942E-03  0.38745886629E+01  0.38745992914E+01  0.90000000000E-02 0.  1.
</event>
<event>
 5   0  0.6135700E+09  0.9118800E+02  0.7818608E-02  0.1180000E+00
       11   -1    0    0    0    0  0.00000000000E+00  0.00000000000E+00  0.39999999673E+01  0.40000000000E+01  0.51109989000E-03 0. -1.
     -623   -1    0    0    0    0  0.00000000000E+00  0.00000000000E+00  0.12525980253E-10  0.17130000000E+03  0.17130000000E+03 0.  1.
       11    1    1    2    0    0  0.27709877659E-03  0.85997055669E-06  0.40296085212E-02  0.40713330008E-02  0.51109989000E-03 0. -1.
     -623    1    1    2    0    0  0.34252555582E-04 -0.12828255860E-03  0.51841389179E-04  0.17130000000E+03  0.17130000000E+03 0.  1.
      622    1    1    2    0    0 -0.31135133216E-03  0.12742258800E-03  0.39959185160E+01  0.39959286655E+01  0.90000000000E-02 0. -1.
</event>
<event>
 5   0  0.6135700E+09  0.9118800E+02  0.7818608E-02  0.1180000E+00
       11   -1    0    0    0    0  0.00000000000E+00  0.00000000000E+00  0.39999999673E+01  0.40000000000E+01  0.51109989000E-03 0.  1.
     -623   -1    0    0    0    0  0.00000000000E+00  0.00000000000E+00  0.12525980253E-10  0.17130000000E+03  0.17130000000E+03 0. -1.
       11    1    1    2    0    0 -0.24558533774E-02  0.15450339873E-04  0.83640517254E+00  0.83640893427E+00  0.51109989000E-03 0.  1.
     -623    1    1    2    0    0 -0.11133422312E-03 -0.80664327276E-03  0.17673509652E-04  0.17130000000E+03  0.17130000000E+03 0. -1.
      622    1    1    2    0    0  0.25671876006E-02  0.79119293289E-03  0.31635771213E+01  0.31635910638E+01  0.90000000000E-02 0.  1.
</event>
<event>
 5   0  0.6135700E+09  0.9118800E+02  0.7818608E-02  0.1180000E+00
       11   -1    0    0    0    0  0.00000000000E+00  0.00000000000E+00  0.39999999673E+01  0.40000000000E+01  0.51109989000E-03 0.  1.
     -623   -1    0    0    0    0  0.00000000000E+00  0.00000000000E+00  0.12525980253E-10  0.17130000000E+03  0.17130000000E+03 0.  1.
       11    1    1    2    0    0 -0.13258961648E-03  0.89858543620E-04  0.98883854539E-01  0.98885305098E-01  0.51109989000E-03 0.  1.
     -623    1    1    2    0    0  0.54861719926E-03 -0.11361908955E-02  0.11966732377E-04  0.17130000000E+03  0.17130000000E+03 0.  1.
      622    1    1    2    0    0 -0.41602758278E-03  0.10463323519E-02  0.39011041461E+01  0.39011146903E+01  0.90000000000E-02 0.  1.
</event>
<event>
 5   0  0.6135700E+09  0.9118800E+02  0.7818608E-02  0.1180000E+00
       11   -1    0    0    0    0  0.00000000000E+00  0.00000000000E+00  0.39999999673E+01  0.40000000000E+01  0.51109989000E-03 0.  1.
     -623   -1    0    0    0    0  0.00000000000E+00  0.00000000000E+00  0.12525980253E-10  0.17130000000E+03  0.17130000000E+03 0. -1.
       11    1    1    2    0    0  0.55099342944E-02 -0.20673323486E-02  0.11308631003E+01  0.11308785284E+01  0.51109989000E-03 0.  1.
     -623    1    1    2    0    0 -0.17038113180E-03  0.66220087141E-04  0.35177903525E-04  0.17130000000E+03  0.17130000000E+03 0. -1.
      622    1    1    2    0    0 -0.53395531623E-02  0.20011122613E-02  0.28691016964E+01  0.28691214787E+01  0.90000000000E-02 0.  0.
</event>
<event>
 5   0  0.6135700E+09  0.9118800E+02  0.7818608E-02  0.1180000E+00
       11   -1    0    0    0    0  0.00000000000E+00  0.00000000000E+00  0.39999999673E+01  0.40000000000E+01  0.51109989000E-03 0.  1.
     -623   -1    0    0    0    0  0.00000000000E+00  0.00000000000E+00  0.12525980253E-10  0.17130000000E+03  0.17130000000E+03 0. -1.
       11    1    1    2    0    0 -0.23609754668E-02 -0.29290297233E-02  0.92897834739E+00  0.92898610569E+00  0.51109989000E-03 0.  1.
     -623    1    1    2    0    0 -0.13345070296E-02  0.42330342988E-02  0.23471345020E-04  0.17130000006E+03  0.17130000000E+03 0. -1.
      622    1    1    2    0    0  0.36954824960E-02 -0.13040045746E-02  0.30709981477E+01  0.30710138359E+01  0.90000000000E-02 0.  1.
</event>
<event>
 5   0  0.6135700E+09  0.9118800E+02  0.7818608E-02  0.1180000E+00
       11   -1    0    0    0    0  0.00000000000E+00  0.00000000000E+00  0.39999999673E+01  0.40000000000E+01  0.51109989000E-03 0. -1.
     -623   -1    0    0    0    0  0.00000000000E+00  0.00000000000E+00  0.12525980253E-10  0.17130000000E+03  0.17130000000E+03 0. -1.
       11    1    1    2    0    0 -0.32513361510E-02 -0.86163604424E-03  0.47091762259E+00  0.47092991207E+00  0.51109989000E-03 0. -1.
     -623    1    1    2    0    0  0.17369926042E-02 -0.30492978698E-03  0.24259776215E-04  0.17130000001E+03  0.17130000000E+03 0. -1.
      622    1    1    2    0    0  0.15143435468E-02  0.11665658312E-02  0.35290580850E+01  0.35290700788E+01  0.90000000000E-02 0.  1.
</event>
<event>
 5   0  0.6135700E+09  0.9118800E+02  0.7818608E-02  0.1180000E+00
       11   -1    0    0    0    0  0.00000000000E+00  0.00000000000E+00  0.39999999673E+01  0.40000000000E+01  0.51109989000E-03 0. -1.
     -623   -1    0    0    0    0  0.00000000000E+00  0.00000000000E+00  0.12525980253E-10  0.17130000000E+03  0.17130000000E+03 0. -1.
       11    1    1    2    0    0 -0.19413800007E-02 -0.12093079369E-02  0.24867525671E+00  0.24868630020E+00  0.51109989000E-03 0. -1.
     -623    1    1    2    0    0  0.40443952262E-03 -0.17350537454E-03  0.22377359633E-04  0.17130000000E+03  0.17130000000E+03 0. -1.
      622    1    1    2    0    0  0.15369404780E-02  0.13828133115E-02  0.37513023333E+01  0.37513136992E+01  0.90000000000E-02 0. -1.
</event>
<event>
 5   0  0.6135700E+09  0.9118800E+02  0.7818608E-02  0.1180000E+00
       11   -1    0    0    0    0  0.00000000000E+00  0.00000000000E+00  0.39999999673E+01  0.40000000000E+01  0.51109989000E-03 0. -1.
     -623   -1    0    0    0    0  0.00000000000E+00  0.00000000000E+00  0.12525980253E-10  0.17130000000E+03  0.17130000000E+03 0.  1.
       11    1    1    2    0    0  0.65276758507E-03  0.80118032630E-03  0.14106572669E+00  0.14107043796E+00  0.51109989000E-03 0. -1.
     -623    1    1    2    0    0 -0.29607209858E-03 -0.86651675028E-04  0.15256694664E-04  0.17130000000E+03  0.17130000000E+03 0.  1.
      622    1    1    2    0    0 -0.35669548712E-03 -0.71452865145E-03  0.38589189755E+01  0.38589295532E+01  0.90000000000E-02 0. -1.
</event>
<event>
 5   0  0.6135700E+09  0.9118800E+02  0.7818608E-02  0.1180000E+00
       11   -1    0    0    0    0  0.00000000000E+00  0.00000000000E+00  0.39999999673E+01  0.40000000000E+01  0.51109989000E-03 0.  1.
     -623   -1    0    0    0    0  0.00000000000E+00  0.00000000000E+00  0.12525980253E-10  0.17130000000E+03  0.17130000000E+03 0.  1.
       11    1    1    2    0    0  0.16090609297E-02 -0.66377703930E-02  0.58678220449E+00  0.58682217562E+00  0.51109989000E-03 0.  1.
     -623    1    1    2    0    0 -0.11732344804E-02 -0.11150176155E-02  0.60644760720E-04  0.17130000001E+03  0.17130000000E+03 0.  1.
      622    1    1    2    0    0 -0.43582644934E-03  0.77527880085E-02  0.34131571181E+01  0.34131778167E+01  0.90000000000E-02 0.  1.
</event>
<event>
 5   0  0.6135700E+09  0.9118800E+02  0.7818608E-02  0.1180000E+00
       11   -1    0    0    0    0  0.00000000000E+00  0.00000000000E+00  0.39999999673E+01  0.40000000000E+01  0.51109989000E-03 0. -1.
     -623   -1    0    0    0    0  0.00000000000E+00  0.00000000000E+00  0.12525980253E-10  0.17130000000E+03  0.17130000000E+03 0.  1.
       11    1    1    2    0    0 -0.88606718330E-03 -0.28165988485E-03  0.14669260588E-01  0.14707578884E-01  0.51109989000E-03 0.  1.
     -623    1    1    2    0    0 -0.22708916006E-04 -0.61395570415E-04  0.48566435346E-04  0.17130000000E+03  0.17130000000E+03 0.  1.
      622    1    1    2    0    0  0.90877609927E-03  0.34305545518E-03  0.39852821350E+01  0.39852924158E+01  0.90000000000E-02 0. -1.
</event>
<event>
 5   0  0.6135700E+09  0.9118800E+02  0.7818608E-02  0.1180000E+00
       11   -1    0    0    0    0  0.00000000000E+00  0.00000000000E+00  0.39999999673E+01  0.40000000000E+01  0.51109989000E-03 0. -1.
     -623   -1    0    0    0    0  0.00000000000E+00  0.00000000000E+00  0.12525980253E-10  0.17130000000E+03  0.17130000000E+03 0.  1.
       11    1    1    2    0    0  0.22850870615E-03 -0.21701013335E-03  0.24170899492E-02  0.24905534619E-02  0.51109989000E-03 0.  1.
     -623    1    1    2    0    0  0.77891132140E-04 -0.19724358840E-03  0.83595551896E-04  0.17130000000E+03  0.17130000000E+03 0.  1.
      622    1    1    2    0    0 -0.30639983830E-03  0.41425372179E-03  0.39974992826E+01  0.39975094471E+01  0.90000000000E-02 0. -1.
</event>
<event>
 5   0  0.6135700E+09  0.9118800E+02  0.7818608E-02  0.1180000E+00
       11   -1    0    0    0    0  0.00000000000E+00  0.00000000000E+00  0.39999999673E+01  0.40000000000E+01  0.51109989000E-03 0.  1.
     -623   -1    0    0    0    0  0.00000000000E+00  0.00000000000E+00  0.12525980253E-10  0.17130000000E+03  0.17130000000E+03 0.  1.
       11    1    1    2    0    0  0.25028493253E-03  0.84569122111E-03  0.51164213524E+00  0.51164315065E+00  0.51109989000E-03 0.  1.
     -623    1    1    2    0    0  0.21982932731E-04 -0.10272697006E-07  0.12705980067E-04  0.17130000000E+03  0.17130000000E+03 0.  1.
      622    1    1    2    0    0 -0.27226786526E-03 -0.84568094841E-03  0.34883451261E+01  0.34883568493E+01  0.90000000000E-02 0.  1.
</event>
<event>
 5   0  0.6135700E+09  0.9118800E+02  0.7818608E-02  0.1180000E+00
       11   -1    0    0    0    0  0.00000000000E+00  0.00000000000E+00  0.39999999673E+01  0.40000000000E+01  0.51109989000E-03 0.  1.
     -623   -1    0    0    0    0  0.00000000000E+00  0.00000000000E+00  0.12525980253E-10  0.17130000000E+03  0.17130000000E+03 0. -1.
       11    1    1    2    0    0  0.91916211394E-02 -0.68386898720E-02  0.84416686542E+00  0.84424475804E+00  0.51109989000E-03 0.  1.
     -623    1    1    2    0    0 -0.65850778681E-02  0.66775528345E-02  0.92031021365E-04  0.17130000026E+03  0.17130000000E+03 0. -1.
      622    1    1    2    0    0 -0.26065432714E-02  0.16113703750E-03  0.31557410709E+01  0.31557549852E+01  0.90000000000E-02 0.  1.
</event>
<event>
 5   0  0.6135700E+09  0.9118800E+02  0.7818608E-02  0.1180000E+00
       11   -1    0    0    0    0  0.00000000000E+00  0.00000000000E+00  0.39999999673E+01  0.40000000000E+01  0.51109989000E-03 0.  1.
     -623   -1    0    0    0    0  0.00000000000E+00  0.00000000000E+00  0.12525980253E-10  0.17130000000E+03  0.17130000000E+03 0. -1.
       11    1    1    2    0    0  0.41281973600E-02 -0.67529033762E-03  0.16886073984E+00  0.16891331715E+00  0.51109989000E-03 0.  1.
     -623    1    1    2    0    0  0.53372551989E-04 -0.75439765419E-04  0.65471758360E-04  0.17130000000E+03  0.17130000000E+03 0. -1.
      622    1    1    2    0    0 -0.41815699119E-02  0.75073010304E-03  0.38310737558E+01  0.38310866828E+01  0.90000000000E-02 0.  1.
</event>
<event>
 5   0  0.6135700E+09  0.9118800E+02  0.7818608E-02  0.1180000E+00
       11   -1    0    0    0    0  0.00000000000E+00  0.00000000000E+00  0.39999999673E+01  0.40000000000E+01  0.51109989000E-03 0. -1.
     -623   -1    0    0    0    0  0.00000000000E+00  0.00000000000E+00  0.12525980253E-10  0.17130000000E+03  0.17130000000E+03 0.  1.
       11    1    1    2    0    0  0.70513223359E-02  0.33398957079E-02  0.61192019206E-01  0.61689549237E-01  0.51109989000E-03 0. -1.
     -623    1    1    2    0    0 -0.62598216667E-02  0.13071581451E-01  0.54266918566E-03  0.17130000061E+03  0.17130000000E+03 0.  1.
      622    1    1    2    0    0 -0.79150066913E-03 -0.16411477159E-01  0.39382652790E+01  0.39383098368E+01  0.90000000000E-02 0. -1.
</event>
<event>
 5   0  0.6135700E+09  0.9118800E+02  0.7818608E-02  0.1180000E+00
       11   -1    0    0    0    0  0.00000000000E+00  0.00000000000E+00  0.39999999673E+01  0.40000000000E+01  0.51109989000E-03 0.  1.
     -623   -1    0    0    0    0  0.00000000000E+00  0.00000000000E+00  0.12525980253E-10  0.17130000000E+03  0.17130000000E+03 0.  1.
       11    1    1    2    0    0 -0.32999449046E-03  0.28213854085E-02  0.19175053439E+00  0.19177225497E+00  0.51109989000E-03 0.  1.
     -623    1    1    2    0    0  0.20649372174E-04  0.82574045692E-04  0.33442614074E-04  0.17130000000E+03  0.17130000000E+03 0.  1.
      622    1    1    2    0    0  0.30934511830E-03 -0.29039594541E-02  0.38082159867E+01  0.38082277413E+01  0.90000000000E-02 0.  1.
</event>
<event>
 5   0  0.6135700E+09  0.9118800E+02  0.7818608E-02  0.1180000E+00
       11   -1    0    0    0    0  0.00000000000E+00  0.00000000000E+00  0.39999999673E+01  0.40000000000E+01  0.51109989000E-03 0. -1.
     -623   -1    0    0    0    0  0.00000000000E+00  0.00000000000E+00  0.12525980253E-10  0.17130000000E+03  0.17130000000E+03 0. -1.
       11    1    1    2    0    0  0.93682214639E-02 -0.65973747929E-02  0.11102678981E+01  0.11103271391E+01  0.51109989000E-03 0. -1.
     -623    1    1    2    0    0  0.26053427773E-02 -0.24344129524E-02  0.11218262852E-03  0.17130000004E+03  0.17130000000E+03 0. -1.
      622    1    1    2    0    0 -0.11973564243E-01  0.90317877467E-02  0.28896198888E+01  0.28896728260E+01  0.90000000000E-02 0. -1.
</event>
<event>
 5   0  0.6135700E+09  0.9118800E+02  0.7818608E-02  0.1180000E+00
       11   -1    0    0    0    0  0.00000000000E+00  0.00000000000E+00  0.39999999673E+01  0.40000000000E+01  0.51109989000E-03 0. -1.
     -623   -1    0    0    0    0  0.00000000000E+00  0.00000000000E+00  0.12525980253E-10  0.17130000000E+03  0.17130000000E+03 0. -1.
       11    1    1    2    0    0 -0.23780986491E-02 -0.40809636197E-02  0.14398043082E+00  0.14405879112E+00  0.51109989000E-03 0. -1.
     -623    1    1    2    0    0  0.22998185634E-02  0.47626421281E-03  0.90532778241E-04  0.17130000002E+03  0.17130000000E+03 0. -1.
      622    1    1    2    0    0  0.78280085705E-04  0.36046994069E-02  0.38559290038E+01  0.38559411928E+01  0.90000000000E-02 0. -1.
</event>
<event>
 5   0  0.6135700E+09  0.9118800E+02  0.7818608E-02  0.1180000E+00
       11   -1    0    0    0    0  0.00000000000E+00  0.00000000000E+00  0.39999999673E+01  0.40000000000E+01  0.51109989000E-03 0.  1.
     -623   -1    0    0    0    0  0.00000000000E+00  0.00000000000E+00  0.12525980253E-10  0.17130000000E+03  0.17130000000E+03 0. -1.
       11    1    1    2    0    0 -0.17310287293E-02 -0.20963817627E-02  0.17873300836E+00  0.17875441470E+00  0.51109989000E-03 0.  1.
     -623    1    1    2    0    0 -0.14662787189E-02  0.31232892977E-03  0.33733018561E-04  0.17130000001E+03  0.17130000000E+03 0. -1.
      622    1    1    2    0    0  0.31973074482E-02  0.17840528329E-02  0.38212332260E+01  0.38212455787E+01  0.90000000000E-02 0.  1.
</event>
<event>
 5   0  0.6135700E+09  0.9118800E+02  0.7818608E-02  0.1180000E+00
       11   -1    0    0    0    0  0.00000000000E+00  0.00000000000E+00  0.39999999673E+01  0.40000000000E+01  0.51109989000E-03 0.  1.
     -623   -1    0    0    0    0  0.00000000000E+00  0.00000000000E+00  0.12525980253E-10  0.17130000000E+03  0.17130000000E+03 0.  1.
       11    1    1    2    0    0 -0.41953262809E-03  0.39367148586E-02  0.44920245057E+00  0.44922018716E+00  0.51109989000E-03 0.  1.
     -623    1    1    2    0    0 -0.19605742464E-03 -0.44458422314E-04  0.31296690588E-04  0.17130000000E+03  0.17130000000E+03 0.  1.
      622    1    1    2    0    0  0.61559005300E-03 -0.38922564362E-02  0.35507662254E+01  0.35507798180E+01  0.90000000000E-02 0.  1.
</event>
<event>
 5   0  0.6135700E+09  0.9118800E+02  0.7818608E-02  0.1180000E+00
       11   -1    0    0    0    0  0.00000000000E+00  0.00000000000E+00  0.39999999673E+01  0.40000000000E+01  0.51109989000E-03 0.  1.
     -623   -1    0    0    0    0  0.00000000000E+00  0.00000000000E+00  0.12525980253E-10  0.17130000000E+03  0.17130000000E+03 0. -1.
       11    1    1    2    0    0  0.10020545555E-02 -0.64079614008E-03  0.35677322739E+00  0.35677557615E+00  0.51109989000E-03 0.  1.
     -623    1    1    2    0    0 -0.54462550286E-03  0.83875524120E-03  0.13469676738E-04  0.17130000000E+03  0.17130000000E+03 0. -1.
      622    1    1    2    0    0 -0.45742905265E-03 -0.19795910112E-03  0.36432132703E+01  0.36432244209E+01  0.90000000000E-02 0.  1.
</event>
<event>
 5   0  0.6135700E+09  0.9118800E+02  0.7818608E-02  0.1180000E+00
       11   -1    0    0    0    0  0.00000000000E+00  0.00000000000E+00  0.39999999673E+01  0.40000000000E+01  0.51109989000E-03 0.  1.
     -623   -1    0    0    0    0  0.00000000000E+00  0.00000000000E+00  0.12525980253E-10  0.17130000000E+03  0.17130000000E+03 0. -1.
       11    1    1    2    0    0 -0.49768513004E-03 -0.18917481325E-02  0.22857148256E+00  0.22858042407E+00  0.51109989000E-03 0.  1.
     -623    1    1    2    0    0  0.18558764978E-03  0.22542496998E-04  0.20123768575E-04  0.17130000000E+03  0.17130000000E+03 0. -1.
      622    1    1    2    0    0  0.31209748044E-03  0.18692056356E-02  0.37714083573E+01  0.37714195721E+01  0.90000000000E-02 0.  1.
</event>
<event>
 5   0  0.6135700E+09  0.9118800E+02  0.7818608E-02  0.1180000E+00
       11   -1    0    0    0    0  0.00000000000E+00  0.00000000000E+00  0.39999999673E+01  0.40000000000E+01  0.51109989000E-03 0. -1.
     -623   -1    0    0    0    0  0.00000000000E+00  0.00000000000E+00  0.12525980253E-10  0.17130000000E+03  0.17130000000E+03 0. -1.
       11    1    1    2    0    0  0.30856311568E-03 -0.22801170990E-02  0.35351529861E+00  0.35352315585E+00  0.51109989000E-03 0.  1.
     -623    1    1    2    0    0  0.33564515916E-04 -0.60264182176E-04  0.19698343209E-04  0.17130000000E+03  0.17130000000E+03 0. -1.
      622    1    1    2    0    0 -0.34212763158E-03  0.23403812812E-02  0.36464649690E+01  0.36464768427E+01  0.90000000000E-02 0. -1.
</event>
<event>
 5   0  0.6135700E+09  0.9118800E+02  0.7818608E-02  0.1180000E+00
       11   -1    0    0    0    0  0.00000000000E+00  0.00000000000E+00  0.39999999673E+01  0.40000000000E+01  0.51109989000E-03 0. -1.
     -623   -1    0    0    0    0  0.00000000000E+00  0.00000000000E+00  0.12525980253E-10  0.17130000000E+03  0.17130000000E+03 0. -1.
       11    1    1    2    0    0 -0.23524632347E-02  0.14151185070E-02  0.73502266619E+00  0.73502797068E+00  0.51109989000E-03 0. -1.
     -623    1    1    2    0    0  0.31531050571E-02 -0.20409336630E-02  0.17875589416E-04  0.17130000004E+03  0.17130000000E+03 0. -1.
      622    1    1    2    0    0 -0.80064184382E-03  0.62581516984E-03  0.32649594528E+01  0.32649720153E+01  0.90000000000E-02 0.  1.
</event>
<event>
 5   0  0.6135700E+09  0.9118800E+02  0.7818608E-02  0.1180000E+00
       11   -1    0    0    0    0  0.00000000000E+00  0.00000000000E+00  0.39999999673E+01  0.40000000000E+01  0.51109989000E-03 0. -1.
     -623   -1    0    0    0    0  0.00000000000E+00  0.00000000000E+00  0.12525980253E-10  0.17130000000E+03  0.17130000000E+03 0. -1.
       11    1    1    2    0    0 -0.14681275248E-02  0.37988914792E-02  0.61514091937E+00  0.61515461380E+00  0.51109989000E-03 0. -1.
     -623    1    1    2    0    0 -0.16674641526E-02  0.23617612159E-02  0.32710092773E-04  0.17130000002E+03  0.17130000000E+03 0. -1.
      622    1    1    2    0    0  0.31355916774E-02 -0.61606526951E-02  0.33848263379E+01  0.33848453618E+01  0.90000000000E-02 0.  0.
</event>
<event>
 5   0  0.6135700E+09  0.9118800E+02  0.7818608E-02  0.1180000E+00
       11   -1    0    0    0    0  0.00000000000E+00  0.00000000000E+00  0.39999999673E+01  0.40000000000E+01  0.51109989000E-03 0.  1.
     -623   -1    0    0    0    0  0.00000000000E+00  0.00000000000E+00  0.12525980253E-10  0.17130000000E+03  0.17130000000E+03 0.  1.
       11    1    1    2    0    0 -0.10632461383E-01  0.29607815943E-02  0.41703759236E+00  0.41718392841E+00  0.51109989000E-03 0.  1.
     -623    1    1    2    0    0  0.79255376722E-03  0.42485793041E-03  0.17272181789E-03  0.17130000000E+03  0.17130000000E+03 0.  1.
      622    1    1    2    0    0  0.98399076157E-02 -0.33856395247E-02  0.35827896532E+01  0.35828160691E+01  0.90000000000E-02 0.  1.
</event>
<event>
 5   0  0.6135700E+09  0.9118800E+02  0.7818608E-02  0.1180000E+00
       11   -1    0    0    0    0  0.00000000000E+00  0.00000000000E+00  0.39999999673E+01  0.40000000000E+01  0.51109989000E-03 0.  1.
     -623   -1    0    0    0    0  0.00000000000E+00  0.00000000000E+00  0.12525980253E-10  0.17130000000E+03  0.17130000000E+03 0. -1.
       11    1    1    2    0    0  0.14910497554E-02 -0.29339721118E-02  0.51962348045E+00  0.51963415407E+00  0.51109989000E-03 0.  1.
     -623    1    1    2    0    0 -0.10559962767E-02  0.91741076338E-02  0.28147984634E-04  0.17130000025E+03  0.17130000000E+03 0. -1.
      622    1    1    2    0    0 -0.43505347584E-03 -0.62401355469E-02  0.34803483498E+01  0.34803656079E+01  0.90000000000E-02 0.  1.
</event>
<event>
 5   0  0.6135700E+09  0.9118800E+02  0.7818608E-02  0.1180000E+00
       11   -1    0    0    0    0  0.00000000000E+00  0.00000000000E+00  0.39999999673E+01  0.40000000000E+01  0.51109989000E-03 0.  1.
     -623   -1    0    0    0    0  0.00000000000E+00  0.00000000000E+00  0.12525980253E-10  0.17130000000E+03  0.17130000000E+03 0.  1.
       11    1    1    2    0    0 -0.12469854125E-03  0.23820425648E-03  0.60547112646E-02  0.60821906078E-02  0.51109989000E-03 0.  1.
     -623    1    1    2    0    0 -0.69392397947E-04  0.14406291895E-04  0.37599858391E-04  0.17130000000E+03  0.17130000000E+03 0.  1.
      622    1    1    2    0    0  0.19409093932E-03 -0.25261054840E-03  0.39939076632E+01  0.39939178164E+01  0.90000000000E-02 0.  1.
</event>
<event>
 5   0  0.6135700E+09  0.9118800E+02  0.7818608E-02  0.1180000E+00
       11   -1    0    0    0    0  0.00000000000E+00  0.00000000000E+00  0.39999999673E+01  0.40000000000E+01  0.51109989000E-03 0. -1.
     -623   -1    0    0    0    0  0.00000000000E+00  0.00000000000E+00  0.12525980253E-10  0.17130000000E+03  0.17130000000E+03 0.  1.
       11    1    1    2    0    0  0.49340752592E-03 -0.48085744199E-03  0.59001488671E+00  0.59001551033E+00  0.51109989000E-03 0. -1.
     -623    1    1    2    0    0  0.45216756164E-03 -0.26800178035E-03  0.12682030833E-04  0.17130000000E+03  0.17130000000E+03 0.  1.
      622    1    1    2    0    0 -0.94557509241E-03  0.74885922522E-03  0.34099724416E+01  0.34099845318E+01  0.90000000000E-02 0. -1.
</event>
<event>
 5   0  0.6135700E+09  0.9118800E+02  0.7818608E-02  0.1180000E+00
       11   -1    0    0    0    0  0.00000000000E+00  0.00000000000E+00  0.39999999673E+01  0.40000000000E+01  0.51109989000E-03 0.  1.
     -623   -1    0    0    0    0  0.00000000000E+00  0.00000000000E+00  0.12525980253E-10  0.17130000000E+03  0.17130000000E+03 0. -1.
       11    1    1    2    0    0  0.75769190984E-03 -0.24804082626E-03  0.23660419060E+00  0.23660608583E+00  0.51109989000E-03 0.  1.
     -623    1    1    2    0    0 -0.11379804968E-03 -0.91285802978E-03  0.12860775606E-04  0.17130000000E+03  0.17130000000E+03 0. -1.
      622    1    1    2    0    0 -0.64389386017E-03  0.11608988560E-02  0.37633829160E+01  0.37633939117E+01  0.90000000000E-02 0.  1.
</event>
<event>
 5   0  0.6135700E+09  0.9118800E+02  0.7818608E-02  0.1180000E+00
       11   -1    0    0    0    0  0.00000000000E+00  0.00000000000E+00  0.39999999673E+01  0.40000000000E+01  0.51109989000E-03 0.  1.
     -623   -1    0    0    0    0  0.00000000000E+00  0.00000000000E+00  0.12525980253E-10  0.17130000000E+03  0.17130000000E+03 0.  1.
       11    1    1    2    0    0  0.29722172117E-03  0.79784604814E-03  0.24333962306E+00  0.24334164928E+00  0.51109989000E-03 0.  1.
     -623    1    1    2    0    0  0.84259273678E-04  0.12924829367E-03  0.12908288067E-04  0.17130000000E+03  0.17130000000E+03 0.  1.
      622    1    1    2    0    0 -0.38148099452E-03 -0.92709434131E-03  0.37566474206E+01  0.37566583352E+01  0.90000000000E-02 0.  0.
</event>
<event>
 5   0  0.6135700E+09  0.9118800E+02  0.7818608E-02  0.1180000E+00
       11   -1    0    0    0    0  0.00000000000E+00  0.00000000000E+00  0.39999999673E+01  0.40000000000E+01  0.51109989000E-03 0. -1.
     -623   -1    0    0    0    0  0.00000000000E+00  0.00000000000E+00  0.12525980253E-10  0.17130000000E+03  0.17130000000E+03 0. -1.
       11    1    1    2    0    0  0.94284449519E-04  0.27118938640E-03  0.90269553933E-01  0.90271457414E-01  0.51109989000E-03 0. -1.
     -623    1    1    2    0    0 -0.42201533843E-04 -0.15015912468E-05  0.12239283651E-04  0.17130000000E+03  0.17130000000E+03 0. -1.
      622    1    1    2    0    0 -0.52082915563E-04 -0.26968779515E-03  0.39097181850E+01  0.39097285534E+01  0.90000000000E-02 0. -1.
</event>
<event>
 5   0  0.6135700E+09  0.9118800E+02  0.7818608E-02  0.1180000E+00
       11   -1    0    0    0    0  0.00000000000E+00  0.00000000000E+00  0.39999999673E+01  0.40000000000E+01  0.51109989000E-03 0.  1.
     -623   -1    0    0    0    0  0.00000000000E+00  0.00000000000E+00  0.12525980253E-10  0.17130000000E+03  0.17130000000E+03 0. -1.
       11    1    1    2    0    0 -0.51847357572E-02  0.46539057752E-02  0.61433950290E+00  0.61437922033E+00  0.51109989000E-03 0.  1.
     -623    1    1    2    0    0 -0.13254138657E-03  0.64733825041E-04  0.59111042453E-04  0.17130000000E+03  0.17130000000E+03 0. -1.
      622    1    1    2    0    0  0.53172771438E-02 -0.47186396002E-02  0.33856013534E+01  0.33856207796E+01  0.90000000000E-02 0.  0.
</event>
<event>
 5   0  0.6135700E+09  0.9118800E+02  0.7818608E-02  0.1180000E+00
       11   -1    0    0    0    0  0.00000000000E+00  0.00000000000E+00  0.39999999673E+01  0.40000000000E+01  0.51109989000E-03 0. -1.
     -623   -1    0    0    0    0  0.00000000000E+00  0.00000000000E+00  0.12525980253E-10  0.17130000000E+03  0.17130000000E+03 0.  1.
       11    1    1    2    0    0  0.64450110588E-02 -0.40920801714E-02  0.59798164346E+00  0.59803059322E+00  0.51109989000E-03 0. -1.
     -623    1    1    2    0    0 -0.61717650154E-02  0.24166373177E-02  0.61373791349E-04  0.17130000013E+03  0.17130000000E+03 0.  1.
      622    1    1    2    0    0 -0.27324604338E-03  0.16754428536E-02  0.34019569501E+01  0.34019692785E+01  0.90000000000E-02 0.  0.
</event>
<event>
 5   0  0.6135700E+09  0.9118800E+02  0.7818608E-02  0.1180000E+00
       11   -1    0    0    0    0  0.00000000000E+00  0.00000000000E+00  0.39999999673E+01  0.40000000000E+01  0.51109989000E-03 0. -1.
     -623   -1    0    0    0    0  0.00000000000E+00  0.00000000000E+00  0.12525980253E-10  0.17130000000E+03  0.17130000000E+03 0.  1.
       11    1    1    2    0    0 -0.83126073258E-03  0.79019222033E-03  0.90063865404E+00  0.90063952932E+00  0.51109989000E-03 0. -1.
     -623    1    1    2    0    0 -0.62620716669E-04 -0.89388595724E-04  0.14118046283E-04  0.17130000000E+03  0.17130000000E+03 0.  1.
      622    1    1    2    0    0  0.89388144934E-03 -0.70080362447E-03  0.30993472010E+01  0.30993604764E+01  0.90000000000E-02 0. -1.
</event>
<event>
 5   0  0.6135700E+09  0.9118800E+02  0.7818608E-02  0.1180000E+00
       11   -1    0    0    0    0  0.00000000000E+00  0.00000000000E+00  0.39999999673E+01  0.40000000000E+01  0.51109989000E-03 0. -1.
     -623   -1    0    0    0    0  0.00000000000E+00  0.00000000000E+00  0.12525980253E-10  0.17130000000E+03  0.17130000000E+03 0.  1.
       11    1    1    2    0    0 -0.27806733928E-02 -0.40225670822E-02  0.99845514540E-01  0.99966500313E-01  0.51109989000E-03 0. -1.
     -623    1    1    2    0    0 -0.77609593525E-03  0.32349403611E-02  0.13307142422E-03  0.17130000003E+03  0.17130000000E+03 0.  1.
      622    1    1    2    0    0  0.35567693280E-02  0.78762672109E-03  0.39000213814E+01  0.39000334673E+01  0.90000000000E-02 0. -1.
</event>
<event>
 5   0  0.6135700E+09  0.9118800E+02  0.7818608E-02  0.1180000E+00
       11   -1    0    0    0    0  0.00000000000E+00  0.00000000000E+00  0.39999999673E+01  0.40000000000E+01  0.51109989000E-03 0.  1.
     -623   -1    0    0    0    0  0.00000000000E+00  0.00000000000E+00  0.12525980253E-10  0.17130000000E+03  0.17130000000E+03 0.  1.
       11    1    1    2    0    0  0.54234645638E-03  0.40647024079E-03  0.18747516973E+00  0.18747709152E+00  0.51109989000E-03 0.  1.
     -623    1    1    2    0    0  0.76439967849E-03  0.32865700264E-03  0.12808891708E-04  0.17130000000E+03  0.17130000000E+03 0.  1.
      622    1    1    2    0    0 -0.13067461349E-02 -0.73512724343E-03  0.38125119887E+01  0.38125229065E+01  0.90000000000E-02 0.  1.
</event>
<event>
 5   0  0.6135700E+09  0.9118800E+02  0.7818608E-02  0.1180000E+00
       11   -1    0    0    0    0  0.00000000000E+00  0.00000000000E+00  0.39999999673E+01  0.40000000000E+01  0.51109989000E-03 0. -1.
     -623   -1    0    0    0    0  0.00000000000E+00  0.00000000000E+00  0.12525980253E-10  0.17130000000E+03  0.17130000000E+03 0. -1.
       11    1    1    2    0    0 -0.11813571686E-02 -0.91755276986E-04  0.78157660638E-01  0.78168313038E-01  0.51109989000E-03 0. -1.
     -623    1    1    2    0    0 -0.76615975051E-04 -0.85633601351E-03  0.21265094905E-04  0.17130000000E+03  0.17130000000E+03 0. -1.
      622    1    1    2    0    0  0.12579731437E-02  0.94809129159E-03  0.39218210468E+01  0.39218316899E+01  0.90000000000E-02 0. -1.
</event>
<event>
 5   0  0.6135700E+09  0.9118800E+02  0.7818608E-02  0.1180000E+00
       11   -1    0    0    0    0  0.00000000000E+00  0.00000000000E+00  0.39999999673E+01  0.40000000000E+01  0.51109989000E-03 0. -1.
     -623   -1    0    0    0    0  0.00000000000E+00  0.00000000000E+00  0.12525980253E-10  0.17130000000E+03  0.17130000000E+03 0.  1.
       11    1    1    2    0    0 -0.16979543783E-02  0.24492301185E-02  0.23229785318E-01  0.23425753424E-01  0.51109989000E-03 0. -1.
     -623    1    1    2    0    0  0.15993533869E-02 -0.34520575096E-02  0.20629017031E-03  0.17130000004E+03  0.17130000000E+03 0.  1.
      622    1    1    2    0    0  0.98600991407E-04  0.10028273910E-02  0.39765638919E+01  0.39765742042E+01  0.90000000000E-02 0. -1.
</event>
<event>
 5   0  0.6135700E+09  0.9118800E+02  0.7818608E-02  0.1180000E+00
       11   -1    0    0    0    0  0.00000000000E+00  0.00000000000E+00  0.39999999673E+01  0.40000000000E+01  0.51109989000E-03 0.  1.
     -623   -1    0    0    0    0  0.00000000000E+00  0.00000000000E+00  0.12525980253E-10  0.17130000000E+03  0.17130000000E+03 0. -1.
       11    1    1    2    0    0  0.13788061188E-02 -0.25152020763E-02  0.54301046483E+00  0.54301828099E+00  0.51109989000E-03 0.  1.
     -623    1    1    2    0    0  0.36840716923E-04  0.30860378734E-04  0.20681506748E-04  0.17130000000E+03  0.17130000000E+03 0. -1.
      622    1    1    2    0    0 -0.14156468356E-02  0.24843416977E-02  0.34569688052E+01  0.34569817032E+01  0.90000000000E-02 0.  1.
</event>
<event>
 5   0  0.6135700E+09  0.9118800E+02  0.7818608E-02  0.1180000E+00
       11   -1    0    0    0    0  0.00000000000E+00  0.00000000000E+00  0.39999999673E+01  0.40000000000E+01  0.51109989000E-03 0.  1.
     -623   -1    0    0    0    0  0.00000000000E+00  0.00000000000E+00  0.12525980253E-10  0.17130000000E+03  0.17130000000E+03 0.  1.
       11    1    1    2    0    0 -0.14166749617E-02 -0.13174835022E-02  0.62319418861E-01  0.62351535034E-01  0.51109989000E-03 0.  1.
     -623    1    1    2    0    0 -0.10471148116E-02 -0.25257893268E-03  0.43456080878E-04  0.17130000000E+03  0.17130000000E+03 0.  1.
      622    1    1    2    0    0  0.24637897748E-02  0.15700624353E-02  0.39376370982E+01  0.39376484674E+01  0.90000000000E-02 0.  1.
</event>
<event>
 5   0  0.6135700E+09  0.9118800E+02  0.7818608E-02  0.1180000E+00
       11   -1    0    0    0    0  0.00000000000E+00  0.00000000000E+00  0.39999999673E+01  0.40000000000E+01  0.51109989000E-03 0. -1.
     -623   -1    0    0    0    0  0.00000000000E+00  0.00000000000E+00  0.12525980253E-10  0.17130000000E+03  0.17130000000E+03 0.  1.
       11    1    1    2    0    0  0.20739734492E-02 -0.71228851931E-03  0.32633697873E+00  0.32634474660E+00  0.51109989000E-03 0. -1.
     -623    1    1    2    0    0 -0.68044572610E-05  0.17824382978E-04  0.19406927608E-04  0.17130000000E+03  0.17130000000E+03 0.  1.
      622    1    1    2    0    0 -0.20671689920E-02  0.69446413631E-03  0.36736435867E+01  0.36736552584E+01  0.90000000000E-02 0.  0.
</event>
<event>
 5   0  0.6135700E+09  0.9118800E+02  0.7818608E-02  0.1180000E+00
       11   -1    0    0    0    0  0.00000000000E+00  0.00000000000E+00  0.39999999673E+01  0.40000000000E+01  0.51109989000E-03 0.  1.
     -623   -1    0    0    0    0  0.00000000000E+00  0.00000000000E+00  0.12525980253E-10  0.17130000000E+03  0.17130000000E+03 0. -1.
       11    1    1    2    0    0  0.10237073354E-02  0.13312370479E-02  0.13411839301E+00  0.13412988009E+00  0.51109989000E-03 0.  1.
     -623    1    1    2    0    0 -0.33991691019E-04  0.10833624697E-03  0.22325515622E-04  0.17130000000E+03  0.17130000000E+03 0. -1.
      622    1    1    2    0    0 -0.98971564435E-03 -0.14395732948E-02  0.38658592488E+01  0.38658701199E+01  0.90000000000E-02 0.  1.
</event>
<event>
 5   0  0.6135700E+09  0.9118800E+02  0.7818608E-02  0.1180000E+00
       11   -1    0    0    0    0  0.00000000000E+00  0.00000000000E+00  0.39999999673E+01  0.40000000000E+01  0.51109989000E-03 0. -1.
     -623   -1    0    0    0    0  0.00000000000E+00  0.00000000000E+00  0.12525980253E-10  0.17130000000E+03  0.17130000000E+03 0. -1.
       11    1    1    2    0    0 -0.83020553434E-02 -0.28973147857E-02  0.26299362842E+00  0.26314108073E+00  0.51109989000E-03 0. -1.
     -623    1    1    2    0    0  0.15381189857E-02  0.81557908590E-03  0.16496802970E-03  0.17130000001E+03  0.17130000000E+03 0. -1.
      622    1    1    2    0    0  0.67639363565E-02  0.20817356992E-02  0.37368413739E+01  0.37368589133E+01  0.90000000000E-02 0. -1.
</event>
<event>
 5   0  0.6135700E+09  0.9118800E+02  0.7818608E-02  0.1180000E+00
       11   -1    0    0    0    0  0.00000000000E+00  0.00000000000E+00  0.39999999673E+01  0.40000000000E+01  0.51109989000E-03 0. -1.
     -623   -1    0    0    0    0  0.00000000000E+00  0.00000000000E+00  0.12525980253E-10  0.17130000000E+03  0.17130000000E+03 0.  1.
       11    1    1    2    0    0 -0.20847859129E-03  0.58055071783E-02  0.51296167995E+00  0.51299482814E+00  0.51109989000E-03 0. -1.
     -623    1    1    2    0    0 -0.44612981685E-02  0.16828213648E-02  0.55963988927E-04  0.17130000007E+03  0.17130000000E+03 0.  1.
      622    1    1    2    0    0  0.46697767598E-02 -0.74883285430E-02  0.34869823234E+01  0.34870051055E+01  0.90000000000E-02 0. -1.
</event>
<event>
 5   0  0.6135700E+09  0.9118800E+02  0.7818608E-02  0.1180000E+00
       11   -1    0    0    0    0  0.00000000000E+00  0.00000000000E+00  0.39999999673E+01  0.40000000000E+01  0.51109989000E-03 0. -1.
     -623   -1    0    0    0    0  0.00000000000E+00  0.00000000000E+00  0.12525980253E-10  0.17130000000E+03  0.17130000000E+03 0. -1.
       11    1    1    2    0    0 -0.62015500497E-02  0.70508605898E-02  0.76685076466E+00  0.76690842370E+00  0.51109989000E-03 0. -1.
     -623    1    1    2    0    0 -0.62748648009E-03 -0.24252522828E-02  0.80692725631E-04  0.17130000002E+03  0.17130000000E+03 0. -1.
      622    1    1    2    0    0  0.68290365294E-02 -0.46256083086E-02  0.32330685074E+01  0.32330915554E+01  0.90000000000E-02 0. -1.
</event>
<event>
 5   0  0.6135700E+09  0.9118800E+02  0.7818608E-02  0.1180000E+00
       11   -1    0    0    0    0  0.00000000000E+00  0.00000000000E+00  0.39999999673E+01  0.40000000000E+01  0.51109989000E-03 0.  1.
     -623   -1    0    0    0    0  0.00000000000E+00  0.00000000000E+00  0.12525980253E-10  0.17130000000E+03  0.17130000000E+03 0. -1.
       11    1    1    2    0    0  0.20052663859E-03 -0.11266509581E-02  0.11161889536E+01  0.11161896572E+01  0.51109989000E-03 0.  1.
     -623    1    1    2    0    0  0.44985921650E-03 -0.40137553016E-03  0.15194173998E-04  0.17130000000E+03  0.17130000000E+03 0. -1.
      622    1    1    2    0    0 -0.65038585509E-03  0.15280264882E-02  0.28837958196E+01  0.28838103417E+01  0.90000000000E-02 0.  1.
</event>
<event>
 5   0  0.6135700E+09  0.9118800E+02  0.7818608E-02  0.1180000E+00
       11   -1    0    0    0    0  0.00000000000E+00  0.00000000000E+00  0.39999999673E+01  0.40000000000E+01  0.51109989000E-03 0. -1.
     -623   -1    0    0    0    0  0.00000000000E+00  0.00000000000E+00  0.12525980253E-10  0.17130000000E+03  0.17130000000E+03 0.  1.
       11    1    1    2    0    0 -0.39633760042E-03 -0.72921226551E-03  0.38414666886E-01  0.38427030709E-01  0.51109989000E-03 0. -1.
     -623    1    1    2    0    0  0.48249727220E-04 -0.11358596898E-03  0.22659396214E-04  0.17130000000E+03  0.17130000000E+03 0.  1.
      622    1    1    2    0    0  0.34808787314E-03  0.84279823463E-03  0.39615626460E+01  0.39615729741E+01  0.90000000000E-02 0. -1.
</event>
<event>
 5   0  0.6135700E+09  0.9118800E+02  0.7818608E-02  0.1180000E+00
       11   -1    0    0    0    0  0.00000000000E+00  0.00000000000E+00  0.39999999673E+01  0.40000000000E+01  0.51109989000E-03 0. -1.
     -623   -1    0    0    0    0  0.00000000000E+00  0.00000000000E+00  0.12525980253E-10  0.17130000000E+03  0.17130000000E+03 0. -1.
       11    1    1    2    0    0  0.11039424571E-02 -0.21738864211E-02  0.80780670648E-01  0.80819072274E-01  0.51109989000E-03 0. -1.
     -623    1    1    2    0    0  0.29502209760E-03  0.20099417842E-03  0.49449426253E-04  0.17130000000E+03  0.17130000000E+03 0. -1.
      622    1    1    2    0    0 -0.13989645547E-02  0.19728922427E-02  0.39191698473E+01  0.39191809273E+01  0.90000000000E-02 0. -1.
</event>
<event>
 5   0  0.6135700E+09  0.9118800E+02  0.7818608E-02  0.1180000E+00
       11   -1    0    0    0    0  0.00000000000E+00  0.00000000000E+00  0.39999999673E+01  0.40000000000E+01  0.51109989000E-03 0.  1.
     -623   -1    0    0    0    0  0.00000000000E+00  0.00000000000E+00  0.12525980253E-10  0.17130000000E+03  0.17130000000E+03 0. -1.
       11    1    1    2    0    0 -0.46199072046E-02  0.79643869427E-02  0.61027385140E+00  0.61034351797E+00  0.51109989000E-03 0.  1.
     -623    1    1    2    0    0  0.20618785851E-01 -0.14498633907E-01  0.12749174709E-03  0.17130000185E+03  0.17130000000E+03 0. -1.
      622    1    1    2    0    0 -0.15998878646E-01  0.65342469643E-02  0.33895986242E+01  0.33896546275E+01  0.90000000000E-02 0.  1.
</event>
<event>
 5   0  0.6135700E+09  0.9118800E+02  0.7818608E-02  0.1180000E+00
       11   -1    0    0    0    0  0.00000000000E+00  0.00000000000E+00  0.39999999673E+01  0.40000000000E+01  0.51109989000E-03 0.  1.
     -623   -1    0    0    0    0  0.00000000000E+00  0.00000000000E+00  0.12525980253E-10  0.17130000000E+03  0.17130000000E+03 0. -1.
       11    1    1    2    0    0 -0.66724958480E-04  0.47594480486E-02  0.16371431346E+00  0.16378429244E+00  0.51109989000E-03 0.  1.
     -623    1    1    2    0    0 -0.22574068725E-02 -0.11277076155E-03  0.84036785468E-04  0.17130000001E+03  0.17130000000E+03 0. -1.
      622    1    1    2    0    0  0.23241318310E-02 -0.46466772870E-02  0.38362016171E+01  0.38362156926E+01  0.90000000000E-02 0.  1.
</event>
<event>
 5   0  0.6135700E+09  0.9118800E+02  0.7818608E-02  0.1180000E+00
       11   -1    0    0    0    0  0.00000000000E+00  0.00000000000E+00  0.39999999673E+01  0.40000000000E+01  0.51109989000E-03 0. -1.
     -623   -1    0    0    0    0  0.00000000000E+00  0.00000000000E+00  0.12525980253E-10  0.17130000000E+03  0.17130000000E+03 0.  1.
       11    1    1    2    0    0  0.17981913212E-02 -0.20524940223E-02  0.89324611887E+00  0.89325043315E+00  0.51109989000E-03 0. -1.
     -623    1    1    2    0    0 -0.49052528700E-06 -0.87636266989E-04  0.18575073339E-04  0.17130000000E+03  0.17130000000E+03 0.  1.
      622    1    1    2    0    0 -0.17977007960E-02  0.21401302897E-02  0.31067352909E+01  0.31067495843E+01  0.90000000000E-02 0. -1.
</event>
<event>
 5   0  0.6135700E+09  0.9118800E+02  0.7818608E-02  0.1180000E+00
       11   -1    0    0    0    0  0.00000000000E+00  0.00000000000E+00  0.39999999673E+01  0.40000000000E+01  0.51109989000E-03 0.  1.
     -623   -1    0    0    0    0  0.00000000000E+00  0.00000000000E+00  0.12525980253E-10  0.17130000000E+03  0.17130000000E+03 0.  1.
       11    1    1    2    0    0 -0.36765733125E-03  0.16172986401E-02  0.61578822382E-01  0.61603274393E-01  0.51109989000E-03 0.  1.
     -623    1    1    2    0    0  0.10464360162E-02  0.40188566881E-04  0.35113234366E-04  0.17130000000E+03  0.17130000000E+03 0.  1.
      622    1    1    2    0    0 -0.67877868800E-03 -0.16574872071E-02  0.39383860434E+01  0.39383967340E+01  0.90000000000E-02 0.  1.
</event>
<event>
 5   0  0.6135700E+09  0.9118800E+02  0.7818608E-02  0.1180000E+00
       11   -1    0    0    0    0  0.00000000000E+00  0.00000000000E+00  0.39999999673E+01  0.40000000000E+01  0.51109989000E-03 0. -1.
     -623   -1    0    0    0    0  0.00000000000E+00  0.00000000000E+00  0.12525980253E-10  0.17130000000E+03  0.17130000000E+03 0. -1.
       11    1    1    2    0    0 -0.99531352500E-05 -0.37917907245E-03  0.71414860657E-01  0.71417696832E-01  0.51109989000E-03 0. -1.
     -623    1    1    2    0    0 -0.70139995198E-04 -0.16131621680E-04  0.13133332013E-04  0.17130000000E+03  0.17130000000E+03 0. -1.
      622    1    1    2    0    0  0.80093130448E-04  0.39531069413E-03  0.39285719734E+01  0.39285823032E+01  0.90000000000E-02 0. -1.
</event>
<event>
 5   0  0.6135700E+09  0.9118800E+02  0.7818608E-02  0.1180000E+00
       11   -1    0    0    0    0  0.00000000000E+00  0.00000000000E+00  0.39999999673E+01  0.40000000000E+01  0.51109989000E-03 0.  1.
     -623   -1    0    0    0    0  0.00000000000E+00  0.00000000000E+00  0.12525980253E-10  0.17130000000E+03  0.17130000000E+03 0. -1.
       11    1    1    2    0    0 -0.87405991685E-03 -0.97896070312E-02  0.69511426727E+00  0.69518393693E+00  0.51109989000E-03 0.  1.
     -623    1    1    2    0    0 -0.20753614096E-02  0.43093858094E-03  0.96472305392E-04  0.17130000001E+03  0.17130000000E+03 0. -1.
      622    1    1    2    0    0  0.29494213265E-02  0.93586684503E-02  0.33047892278E+01  0.33048160499E+01  0.90000000000E-02 0.  1.
</event>
<event>
 5   0  0.6135700E+09  0.9118800E+02  0.7818608E-02  0.1180000E+00
       11   -1    0    0    0    0  0.00000000000E+00  0.00000000000E+00  0.39999999673E+01  0.40000000000E+01  0.51109989000E-03 0. -1.
     -623   -1    0    0    0    0  0.00000000000E+00  0.00000000000E+00  0.12525980253E-10  0.17130000000E+03  0.17130000000E+03 0.  1.
       11    1    1    2    0    0 -0.80833303431E-03  0.16546845221E-02  0.33709169637E+00  0.33709711415E+00  0.51109989000E-03 0. -1.
     -623    1    1    2    0    0  0.16176928523E-02 -0.66903361945E-03  0.16672939657E-04  0.17130000001E+03  0.17130000000E+03 0.  1.
      622    1    1    2    0    0 -0.80935982011E-03 -0.98565090176E-03  0.36628916032E+01  0.36629028821E+01  0.90000000000E-02 0. -1.
</event>
<event>
 5   0  0.6135700E+09  0.9118800E+02  0.7818608E-02  0.1180000E+00
       11   -1    0    0    0    0  0.00000000000E+00  0.00000000000E+00  0.39999999673E+01  0.40000000000E+01  0.51109989000E-03 0. -1.
     -623   -1    0    0    0    0  0.00000000000E+00  0.00000000000E+00  0.12525980253E-10  0.17130000000E+03  0.17130000000E+03 0.  1.
       11    1    1    2    0    0  0.21021567564E-02  0.24486258776E-03  0.85373588699E+00  0.85373866316E+00  0.51109989000E-03 0. -1.
     -623    1    1    2    0    0  0.20332446389E-03  0.78414496138E-04  0.16477421354E-04  0.17130000000E+03  0.17130000000E+03 0.  1.
      622    1    1    2    0    0 -0.23054812203E-02 -0.32327708390E-03  0.31462476029E+01  0.31462613367E+01  0.90000000000E-02 0.  0.
</event>
<event>
 5   0  0.6135700E+09  0.9118800E+02  0.7818608E-02  0.1180000E+00
       11   -1    0    0    0    0  0.00000000000E+00  0.00000000000E+00  0.39999999673E+01  0.40000000000E+01  0.51109989000E-03 0. -1.
     -623   -1    0    0    0    0  0.00000000000E+00  0.00000000000E+00  0.12525980253E-10  0.17130000000E+03  0.17130000000E+03 0. -1.
       11    1    1    2    0    0  0.57106241814E-03  0.83796243099E-03  0.32775890598E-02  0.34687326885E-02  0.51109989000E-03 0.  1.
     -623    1    1    2    0    0 -0.29790852604E-03 -0.49505742228E-03  0.20126992733E-03  0.17130000000E+03  0.17130000000E+03 0. -1.
      622    1    1    2    0    0 -0.27315389206E-03 -0.34290500863E-03  0.39965211090E+01  0.39965312668E+01  0.90000000000E-02 0. -1.
</event>
<event>
 5   0  0.6135700E+09  0.9118800E+02  0.7818608E-02  0.1180000E+00
       11   -1    0    0    0    0  0.00000000000E+00  0.00000000000E+00  0.39999999673E+01  0.40000000000E+01  0.51109989000E-03 0.  1.
     -623   -1    0    0    0    0  0.00000000000E+00  0.00000000000E+00  0.12525980253E-10  0.17130000000E+03  0.17130000000E+03 0.  1.
       11    1    1    2    0    0 -0.95095640291E-03 -0.98340536191E-04  0.28719739579E+00  0.28719944178E+00  0.51109989000E-03 0.  1.
     -623    1    1    2    0    0  0.35183151315E-04  0.48360107811E-04  0.13034863588E-04  0.17130000000E+03  0.17130000000E+03 0.  1.
      622    1    1    2    0    0  0.91577325142E-03  0.49980428139E-04  0.37127895566E+01  0.37128005781E+01  0.90000000000E-02 0.  1.
</event>
<event>
 5   0  0.6135700E+09  0.9118800E+02  0.7818608E-02  0.1180000E+00
       11   -1    0    0    0    0  0.00000000000E+00  0.00000000000E+00  0.39999999673E+01  0.40000000000E+01  0.51109989000E-03 0. -1.
     -623   -1    0    0    0    0  0.00000000000E+00  0.00000000000E+00  0.12525980253E-10  0.17130000000E+03  0.17130000000E+03 0.  1.
       11    1    1    2    0    0 -0.62247811353E-03  0.49458175879E-02  0.10869839634E+01  0.10869955135E+01  0.51109989000E-03 0. -1.
     -623    1    1    2    0    0 -0.84627904038E-02  0.91551102808E-03  0.45697116037E-04  0.17130000021E+03  0.17130000000E+03 0.  1.
      622    1    1    2    0    0  0.90852685173E-02 -0.58613286160E-02  0.29129703069E+01  0.29130042750E+01  0.90000000000E-02 0.  0.
</event>
<event>
 5   0  0.6135700E+09  0.9118800E+02  0.7818608E-02  0.1180000E+00
       11   -1    0    0    0    0  0.00000000000E+00  0.00000000000E+00  0.39999999673E+01  0.40000000000E+01  0.51109989000E-03 0.  1.
     -623   -1    0    0    0    0  0.00000000000E+00  0.00000000000E+00  0.12525980253E-10  0.17130000000E+03  0.17130000000E+03 0. -1.
       11    1    1    2    0    0  0.10446708200E-02  0.75792075444E-04  0.15394891696E+00  0.15395332843E+00  0.51109989000E-03 0.  1.
     -623    1    1    2    0    0  0.43758841450E-03 -0.10293982557E-03  0.15195455975E-04  0.17130000000E+03  0.17130000000E+03 0. -1.
      622    1    1    2    0    0 -0.14822592344E-02  0.27147750121E-04  0.38460358549E+01  0.38460466710E+01  0.90000000000E-02 0.  1.
</event>
<event>
 5   0  0.6135700E+09  0.9118800E+02  0.7818608E-02  0.1180000E+00
       11   -1    0    0    0    0  0.00000000000E+00  0.00000000000E+00  0.39999999673E+01  0.40000000000E+01  0.51109989000E-03 0.  1.
     -623   -1    0    0    0    0  0.00000000000E+00  0.00000000000E+00  0.12525980253E-10  0.17130000000E+03  0.17130000000E+03 0. -1.
       11    1    1    2    0    0 -0.35406403745E-02  0.47783134719E-02  0.32472537464E+00  0.32478023119E+00  0.51109989000E-03 0.  1.
     -623    1    1    2    0    0 -0.18735625414E-02 -0.78031325711E-02  0.71264447928E-04  0.17130000019E+03  0.17130000000E+03 0. -1.
      622    1    1    2    0    0  0.54142029154E-02  0.30248190974E-02  0.36752033273E+01  0.36752195799E+01  0.90000000000E-02 0.  1.
</event>
<event>
 5   0  0.6135700E+09  0.9118800E+02  0.7818608E-02  0.1180000E+00
       11   -1    0    0    0    0  0.00000000000E+00  0.00000000000E+00  0.39999999673E+01  0.40000000000E+01  0.51109989000E-03 0. -1.
     -623   -1    0    0    0    0  0.00000000000E+00  0.00000000000E+00  0.12525980253E-10  0.17130000000E+03  0.17130000000E+03 0.  1.
       11    1    1    2    0    0  0.22285635645E-02 -0.33519707483E-02  0.55412786636E+00  0.55414272142E+00  0.51109989000E-03 0. -1.
     -623    1    1    2    0    0 -0.10161136670E-02 -0.15900606056E-02  0.30343317811E-04  0.17130000001E+03  0.17130000000E+03 0.  1.
      622    1    1    2    0    0 -0.12124498935E-02  0.49420313603E-02  0.34458417738E+01  0.34458572843E+01  0.90000000000E-02 0. -1.
</event>
<event>
 5   0  0.6135700E+09  0.9118800E+02  0.7818608E-02  0.1180000E+00
       11   -1    0    0    0    0  0.00000000000E+00  0.00000000000E+00  0.39999999673E+01  0.40000000000E+01  0.51109989000E-03 0.  1.
     -623   -1    0    0    0    0  0.00000000000E+00  0.00000000000E+00  0.12525980253E-10  0.17130000000E+03  0.17130000000E+03 0.  1.
       11    1    1    2    0    0 -0.69446265039E-03  0.33419343305E-02  0.65127578829E+00  0.65128493338E+00  0.51109989000E-03 0.  1.
     -623    1    1    2    0    0 -0.29719661655E-03  0.59427725102E-04  0.23081182346E-04  0.17130000000E+03  0.17130000000E+03 0.  1.
      622    1    1    2    0    0  0.99165926674E-03 -0.34013620556E-02  0.33487010952E+01  0.33487150637E+01  0.90000000000E-02 0.  0.
</event>
<event>
 5   0  0.6135700E+09  0.9118800E+02  0.7818608E-02  0.1180000E+00
       11   -1    0    0    0    0  0.00000000000E+00  0.00000000000E+00  0.39999999673E+01  0.40000000000E+01  0.51109989000E-03 0. -1.
     -623   -1    0    0    0    0  0.00000000000E+00  0.00000000000E+00  0.12525980253E-10  0.17130000000E+03  0.17130000000E+03 0.  1.
       11    1    1    2    0    0 -0.18339787212E-02 -0.36657438318E-02  0.14968967353E-01  0.15528437220E-01  0.51109989000E-03 0. -1.
     -623    1    1    2    0    0  0.19355191194E-01 -0.25837610393E-02  0.61414084960E-03  0.17130000111E+03  0.17130000000E+03 0.  1.
      622    1    1    2    0    0 -0.17521212477E-01  0.62495048716E-02  0.39844168600E+01  0.39844704495E+01  0.90000000000E-02 0. -1.
</event>
<event>
 5   0  0.6135700E+09  0.9118800E+02  0.7818608E-02  0.1180000E+00
       11   -1    0    0    0    0  0.00000000000E+00  0.00000000000E+00  0.39999999673E+01  0.40000000000E+01  0.51109989000E-03 0. -1.
     -623   -1    0    0    0    0  0.00000000000E+00  0.00000000000E+00  0.12525980253E-10  0.17130000000E+03  0.17130000000E+03 0. -1.
       11    1    1    2    0    0  0.46950315653E-03 -0.38121040881E-03  0.28680765016E-01  0.28691693178E-01  0.51109989000E-03 0. -1.
     -623    1    1    2    0    0 -0.19761602084E-03 -0.27416778745E-03  0.21157405349E-04  0.17130000000E+03  0.17130000000E+03 0. -1.
      622    1    1    2    0    0 -0.27188713570E-03  0.65537819626E-03  0.39712980449E+01  0.39713083065E+01  0.90000000000E-02 0. -1.
</event>
<event>
 5   0  0.6135700E+09  0.9118800E+02  0.7818608E-02  0.1180000E+00
       11   -1    0    0    0    0  0.00000000000E+00  0.00000000000E+00  0.39999999673E+01  0.40000000000E+01  0.51109989000E-03 0. -1.
     -623   -1    0    0    0    0  0.00000000000E+00  0.00000000000E+00  0.12525980253E-10  0.17130000000E+03  0.17130000000E+03 0. -1.
       11    1    1    2    0    0  0.18340800715E-02 -0.92415844066E-03  0.26897908448E+00  0.26898741054E+00  0.51109989000E-03 0. -1.
     -623    1    1    2    0    0 -0.89946803524E-03 -0.10467830924E-02  0.19791603034E-04  0.17130000001E+03  0.17130000000E+03 0. -1.
      622    1    1    2    0    0 -0.93461203623E-03  0.19709415331E-02  0.37310010913E+01  0.37310125839E+01  0.90000000000E-02 0. -1.
</event>
<event>
 5   0  0.6135700E+09  0.9118800E+02  0.7818608E-02  0.1180000E+00
       11   -1    0    0    0    0  0.00000000000E+00  0.00000000000E+00  0.39999999673E+01  0.40000000000E+01  0.51109989000E-03 0.  1.
     -623   -1    0    0    0    0  0.00000000000E+00  0.00000000000E+00  0.12525980253E-10  0.17130000000E+03  0.17130000000E+03 0. -1.
       11    1    1    2    0    0  0.38329780105E-02 -0.35870612982E-02  0.78480068563E+00  0.78481840965E+00  0.51109989000E-03 0.  1.
     -623    1    1    2    0    0  0.33158998832E-03 -0.33771608771E-04  0.35024216281E-04  0.17130000000E+03  0.17130000000E+03 0. -1.
      622    1    1    2    0    0 -0.41645679994E-02  0.36208329071E-02  0.32151642638E+01  0.32151815963E+01  0.90000000000E-02 0.  1.
</event>
<event>
 5   0  0.6135700E+09  0.9118800E+02  0.7818608E-02  0.1180000E+00
       11   -1    0    0    0    0  0.00000000000E+00  0.00000000000E+00  0.39999999673E+01  0.40000000000E+01  0.51109989000E-03 0. -1.
     -623   -1    0    0    0    0  0.00000000000E+00  0.00000000000E+00  0.12525980253E-10  0.17130000000E+03  0.17130000000E+03 0.  1.
       11    1    1    2    0    0 -0.79853697602E-03  0.14768318608E-02  0.71031276735E+00  0.71031493535E+00  0.51109989000E-03 0. -1.
     -623    1    1    2    0    0  0.10874457606E-02  0.57009019638E-03  0.15100501245E-04  0.17130000000E+03  0.17130000000E+03 0.  1.
      622    1    1    2    0    0 -0.28890877898E-03 -0.20469220542E-02  0.32896720791E+01  0.32896850398E+01  0.90000000000E-02 0. -1.
</event>
<event>
 5   0  0.6135700E+09  0.9118800E+02  0.7818608E-02  0.1180000E+00
       11   -1    0    0    0    0  0.00000000000E+00  0.00000000000E+00  0.39999999673E+01  0.40000000000E+01  0.51109989000E-03 0.  1.
     -623   -1    0    0    0    0  0.00000000000E+00  0.00000000000E+00  0.12525980253E-10  0.17130000000E+03  0.17130000000E+03 0.  1.
       11    1    1    2    0    0  0.33832740140E-02  0.32580188545E-02  0.49600990743E+00  0.49603240894E+00  0.51109989000E-03 0.  1.
     -623    1    1    2    0    0 -0.68750961456E-02 -0.11859613117E-02  0.36521812799E-04  0.17130000014E+03  0.17130000000E+03 0.  1.
      622    1    1    2    0    0  0.34918221178E-02 -0.20720575452E-02  0.35039535301E+01  0.35039674409E+01  0.90000000000E-02 0.  1.
</event>
<event>
 5   0  0.6135700E+09  0.9118800E+02  0.7818608E-02  0.1180000E+00
       11   -1    0    0    0    0  0.00000000000E+00  0.00000000000E+00  0.39999999673E+01  0.40000000000E+01  0.51109989000E-03 0. -1.
     -623   -1    0    0    0    0  0.00000000000E+00  0.00000000000E+00  0.12525980253E-10  0.17130000000E+03  0.17130000000E+03 0.  1.
       11    1    1    2    0    0 -0.49767343758E-03  0.94149475140E-03  0.53755412667E+00  0.53755542451E+00  0.51109989000E-03 0. -1.
     -623    1    1    2    0    0  0.44571990435E-04  0.12494357221E-04  0.13123230163E-04  0.17130000000E+03  0.17130000000E+03 0.  1.
      622    1    1    2    0    0  0.45310144702E-03 -0.95398910865E-03  0.34624327285E+01  0.34624445865E+01  0.90000000000E-02 0. -1.
</event>
<event>
 5   0  0.6135700E+09  0.9118800E+02  0.7818608E-02  0.1180000E+00
       11   -1    0    0    0    0  0.00000000000E+00  0.00000000000E+00  0.39999999673E+01  0.40000000000E+01  0.51109989000E-03 0. -1.
     -623   -1    0    0    0    0  0.00000000000E+00  0.00000000000E+00  0.12525980253E-10  0.17130000000E+03  0.17130000000E+03 0. -1.
       11    1    1    2    0    0 -0.14617083808E-02  0.16042806953E-02  0.77649573967E+00  0.77649894093E+00  0.51109989000E-03 0. -1.
     -623    1    1    2    0    0  0.17964278437E-03 -0.61582458211E-04  0.16356830514E-04  0.17130000000E+03  0.17130000000E+03 0. -1.
      622    1    1    2    0    0  0.12820655964E-02 -0.15426982371E-02  0.32234878709E+01  0.32235010590E+01  0.90000000000E-02 0. -1.
</event>
<event>
 5   0  0.6135700E+09  0.9118800E+02  0.7818608E-02  0.1180000E+00
       11   -1    0    0    0    0  0.00000000000E+00  0.00000000000E+00  0.39999999673E+01  0.40000000000E+01  0.51109989000E-03 0. -1.
     -623   -1    0    0    0    0  0.00000000000E+00  0.00000000000E+00  0.12525980253E-10  0.17130000000E+03  0.17130000000E+03 0. -1.
       11    1    1    2    0    0  0.58340780522E-02  0.32267887272E-02  0.22480252560E+00  0.22490194612E+00  0.51109989000E-03 0. -1.
     -623    1    1    2    0    0 -0.75318278288E-02 -0.26142404108E-02  0.11073312263E-03  0.17130000019E+03  0.17130000000E+03 0. -1.
      622    1    1    2    0    0  0.16977497731E-02 -0.61254831756E-03  0.37750867068E+01  0.37750978665E+01  0.90000000000E-02 0. -1.
</event>
<event>
 5   0  0.6135700E+09  0.9118800E+02  0.7818608E-02  0.1180000E+00
       11   -1    0    0    0    0  0.00000000000E+00  0.00000000000E+00  0.39999999673E+01  0.40000000000E+01  0.51109989000E-03 0.  1.
     -623   -1    0    0    0    0  0.00000000000E+00  0.00000000000E+00  0.12525980253E-10  0.17130000000E+03  0.17130000000E+03 0.  1.
       11    1    1    2    0    0  0.25214831776E-02  0.22700948772E-02  0.18361793001E+00  0.18364998407E+00  0.51109989000E-03 0.  1.
     -623    1    1    2    0    0 -0.47138265921E-03  0.16496049693E-03  0.43961908142E-04  0.17130000000E+03  0.17130000000E+03 0.  1.
      622    1    1    2    0    0 -0.20501005184E-02 -0.24350553741E-02  0.38163380754E+01  0.38163500152E+01  0.90000000000E-02 0.  1.
</event>
<event>
 5   0  0.6135700E+09  0.9118800E+02  0.7818608E-02  0.1180000E+00
       11   -1    0    0    0    0  0.00000000000E+00  0.00000000000E+00  0.39999999673E+01  0.40000000000E+01  0.51109989000E-03 0. -1.
     -623   -1    0    0    0    0  0.00000000000E+00  0.00000000000E+00  0.12525980253E-10  0.17130000000E+03  0.17130000000E+03 0.  1.
       11    1    1    2    0    0  0.43553630462E-03  0.18232551675E-03  0.85315160652E-01  0.85317998070E-01  0.51109989000E-03 0.  1.
     -623    1    1    2    0    0 -0.27449153066E-04  0.64583740347E-05  0.13176284746E-04  0.17130000000E+03  0.17130000000E+03 0.  1.
      622    1    1    2    0    0 -0.40808715152E-03 -0.18878389079E-03  0.39146716354E+01  0.39146820069E+01  0.90000000000E-02 0. -1.
</event>
<event>
 5   0  0.6135700E+09  0.9118800E+02  0.7818608E-02  0.1180000E+00
       11   -1    0    0    0    0  0.00000000000E+00  0.00000000000E+00  0.39999999673E+01  0.40000000000E+01  0.51109989000E-03 0.  1.
     -623   -1    0    0    0    0  0.00000000000E+00  0.00000000000E+00  0.12525980253E-10  0.17130000000E+03  0.17130000000E+03 0.  1.
       11    1    1    2    0    0  0.21316995834E-02 -0.97109253013E-02  0.78738284654E+00  0.78744577874E+00  0.51109989000E-03 0.  1.
     -623    1    1    2    0    0  0.13022157938E-02  0.15080373461E-02  0.87825891078E-04  0.17130000001E+03  0.17130000000E+03 0.  1.
      622    1    1    2    0    0 -0.34339153772E-02  0.82028879552E-02  0.32125292949E+01  0.32125542096E+01  0.90000000000E-02 0.  1.
</event>
<event>
 5   0  0.6135700E+09  0.9118800E+02  0.7818608E-02  0.1180000E+00
       11   -1    0    0    0    0  0.00000000000E+00  0.00000000000E+00  0.39999999673E+01  0.40000000000E+01  0.51109989000E-03 0.  1.
     -623   -1    0    0    0    0  0.00000000000E+00  0.00000000000E+00  0.12525980253E-10  0.17130000000E+03  0.17130000000E+03 0.  1.
       11    1    1    2    0    0 -0.66114450742E-03 -0.78739445373E-03  0.13775905407E+00  0.13776383889E+00  0.51109989000E-03 0. -1.
     -623    1    1    2    0    0 -0.10232649871E-02 -0.12667966181E-03  0.15716915740E-04  0.17130000000E+03  0.17130000000E+03 0.  1.
      622    1    1    2    0    0  0.16844094956E-02  0.91407411566E-03  0.38622252003E+01  0.38622361619E+01  0.90000000000E-02 0.  1.
</event>
<event>
 5   0  0.6135700E+09  0.9118800E+02  0.7818608E-02  0.1180000E+00
       11   -1    0    0    0    0  0.00000000000E+00  0.00000000000E+00  0.39999999673E+01  0.40000000000E+01  0.51109989000E-03 0. -1.
     -623   -1    0    0    0    0  0.00000000000E+00  0.00000000000E+00  0.12525980253E-10  0.17130000000E+03  0.17130000000E+03 0. -1.
       11    1    1    2    0    0  0.16931567171E-02  0.10094369867E-02  0.59783601619E-01  0.59818274675E-01  0.51109989000E-03 0. -1.
     -623    1    1    2    0    0  0.68432954483E-03 -0.88309338718E-03  0.45642100909E-04  0.17130000000E+03  0.17130000000E+03 0. -1.
      622    1    1    2    0    0 -0.23774862620E-02 -0.12634359952E-03  0.39401707236E+01  0.39401817217E+01  0.90000000000E-02 0. -1.
</event>
<event>
 5   0  0.6135700E+09  0.9118800E+02  0.7818608E-02  0.1180000E+00
       11   -1    0    0    0    0  0.00000000000E+00  0.00000000000E+00  0.39999999673E+01  0.40000000000E+01  0.51109989000E-03 0.  1.
     -623   -1    0    0    0    0  0.00000000000E+00  0.00000000000E+00  0.12525980253E-10  0.17130000000E+03  0.17130000000E+03 0. -1.
       11    1    1    2    0    0 -0.32457854938E-02  0.66847553425E-03  0.55792811868E-01  0.55893479604E-01  0.51109989000E-03 0.  1.
     -623    1    1    2    0    0 -0.46574287939E-03 -0.45016504546E-03  0.11265723552E-03  0.17130000000E+03  0.17130000000E+03 0. -1.
      622    1    1    2    0    0  0.37115283736E-02 -0.21831048834E-03  0.39440945023E+01  0.39441065232E+01  0.90000000000E-02 0.  1.
</event>
<event>
 5   0  0.6135700E+09  0.9118800E+02  0.7818608E-02  0.1180000E+00
       11   -1    0    0    0    0  0.00000000000E+00  0.00000000000E+00  0.39999999673E+01  0.40000000000E+01  0.51109989000E-03 0. -1.
     -623   -1    0    0    0    0  0.00000000000E+00  0.00000000000E+00  0.12525980253E-10  0.17130000000E+03  0.17130000000E+03 0.  1.
       11    1    1    2    0    0 -0.11477930947E-02 -0.12239159446E-03  0.50311023992E+00  0.50311182370E+00  0.51109989000E-03 0. -1.
     -623    1    1    2    0    0  0.66514101388E-04 -0.96559310026E-04  0.13306949449E-04  0.17130000000E+03  0.17130000000E+03 0.  1.
      622    1    1    2    0    0  0.10812789933E-02  0.21895090449E-03  0.34968764205E+01  0.34968881763E+01  0.90000000000E-02 0. -1.
</event>
<event>
 5   0  0.6135700E+09  0.9118800E+02  0.7818608E-02  0.1180000E+00
       11   -1    0    0    0    0  0.00000000000E+00  0.00000000000E+00  0.39999999673E+01  0.40000000000E+01  0.51109989000E-03 0.  1.
     -623   -1    0    0    0    0  0.00000000000E+00  0.00000000000E+00  0.12525980253E-10  0.17130000000E+03  0.17130000000E+03 0. -1.
       11    1    1    2    0    0  0.54323587739E-03 -0.95964653097E-03  0.10146237267E+00  0.10146965219E+00  0.51109989000E-03 0.  1.
     -623    1    1    2    0    0  0.36172440914E-03 -0.24104493961E-04  0.17864964384E-04  0.17130000000E+03  0.17130000000E+03 0. -1.
      622    1    1    2    0    0 -0.90496028653E-03  0.98375102493E-03  0.38985197297E+01  0.38985303474E+01  0.90000000000E-02 0.  1.
</event>
<event>
 5   0  0.6135700E+09  0.9118800E+02  0.7818608E-02  0.1180000E+00
       11   -1    0    0    0    0  0.00000000000E+00  0.00000000000E+00  0.39999999673E+01  0.40000000000E+01  0.51109989000E-03 0. -1.
     -623   -1    0    0    0    0  0.00000000000E+00  0.00000000000E+00  0.12525980253E-10  0.17130000000E+03  0.17130000000E+03 0. -1.
       11    1    1    2    0    0  0.26730412535E-03  0.16166214986E-02  0.53099854998E+00  0.53100132412E+00  0.51109989000E-03 0. -1.
     -623    1    1    2    0    0 -0.19229001563E-04  0.10088412380E-05  0.14802390956E-04  0.17130000000E+03  0.17130000000E+03 0. -1.
      622    1    1    2    0    0 -0.24807512378E-03 -0.16176303398E-02  0.34689866150E+01  0.34689986759E+01  0.90000000000E-02 0. -1.
</event>
<event>
 5   0  0.6135700E+09  0.9118800E+02  0.7818608E-02  0.1180000E+00
       11   -1    0    0    0    0  0.00000000000E+00  0.00000000000E+00  0.39999999673E+01  0.40000000000E+01  0.51109989000E-03 0. -1.
     -623   -1    0    0    0    0  0.00000000000E+00  0.00000000000E+00  0.12525980253E-10  0.17130000000E+03  0.17130000000E+03 0.  1.
       11    1    1    2    0    0  0.12740717544E-03 -0.35141758694E-03  0.10843949881E-02  0.12557318569E-02  0.51109989000E-03 0. -1.
     -623    1    1    2    0    0 -0.25776817627E-02  0.45982207443E-03  0.18220471712E-03  0.17130000002E+03  0.17130000000E+03 0.  1.
      622    1    1    2    0    0  0.24502745878E-02 -0.10840448757E-03  0.39987333684E+01  0.39987442488E+01  0.90000000000E-02 0. -1.
</event>
<event>
 5   0  0.6135700E+09  0.9118800E+02  0.7818608E-02  0.1180000E+00
       11   -1    0    0    0    0  0.00000000000E+00  0.00000000000E+00  0.39999999673E+01  0.40000000000E+01  0.51109989000E-03 0.  1.
     -623   -1    0    0    0    0  0.00000000000E+00  0.00000000000E+00  0.12525980253E-10  0.17130000000E+03  0.17130000000E+03 0.  1.
       11    1    1    2    0    0  0.38954265856E-02 -0.50043356596E-02  0.10658927390E+01  0.10659117271E+01  0.51109989000E-03 0.  1.
     -623    1    1    2    0    0 -0.19671535426E-02  0.26542721990E-02  0.34365412394E-04  0.17130000003E+03  0.17130000000E+03 0.  1.
      622    1    1    2    0    0 -0.19282730431E-02  0.23500634606E-02  0.29340728630E+01  0.29340882410E+01  0.90000000000E-02 0.  0.
</event>
<event>
 5   0  0.6135700E+09  0.9118800E+02  0.7818608E-02  0.1180000E+00
       11   -1    0    0    0    0  0.00000000000E+00  0.00000000000E+00  0.39999999673E+01  0.40000000000E+01  0.51109989000E-03 0. -1.
     -623   -1    0    0    0    0  0.00000000000E+00  0.00000000000E+00  0.12525980253E-10  0.17130000000E+03  0.17130000000E+03 0.  1.
       11    1    1    2    0    0 -0.41711764702E-03 -0.19492548321E-03  0.56086782964E-01  0.56091001307E-01  0.51109989000E-03 0. -1.
     -623    1    1    2    0    0  0.44391454818E-04 -0.10660968491E-03  0.14483894746E-04  0.17130000000E+03  0.17130000000E+03 0.  1.
      622    1    1    2    0    0  0.37272619221E-03  0.30153516812E-03  0.39438987005E+01  0.39439089987E+01  0.90000000000E-02 0. -1.
</event>
<event>
 5   0  0.6135700E+09  0.9118800E+02  0.7818608E-02  0.1180000E+00
       11   -1    0    0    0    0  0.00000000000E+00  0.00000000000E+00  0.39999999673E+01  0.40000000000E+01  0.51109989000E-03 0. -1.
     -623   -1    0    0    0    0  0.00000000000E+00  0.00000000000E+00  0.12525980253E-10  0.17130000000E+03  0.17130000000E+03 0.  1.
       11    1    1    2    0    0  0.58856155920E-03  0.19580227395E-02  0.99967777573E-01  0.99989989658E-01  0.51109989000E-03 0. -1.
     -623    1    1    2    0    0  0.20517613298E-03 -0.45474608635E-04  0.33113905452E-04  0.17130000000E+03  0.17130000000E+03 0.  1.
      622    1    1    2    0    0 -0.79373769218E-03 -0.19125481309E-02  0.38999990759E+01  0.39000100102E+01  0.90000000000E-02 0. -1.
</event>
<event>
 5   0  0.6135700E+09  0.9118800E+02  0.7818608E-02  0.1180000E+00
       11   -1    0    0    0    0  0.00000000000E+00  0.00000000000E+00  0.39999999673E+01  0.40000000000E+01  0.51109989000E-03 0.  1.
     -623   -1    0    0    0    0  0.00000000000E+00  0.00000000000E+00  0.12525980253E-10  0.17130000000E+03  0.17130000000E+03 0.  1.
       11    1    1    2    0    0  0.55670544976E-02 -0.28844980563E-02  0.74029576017E+00  0.74032248795E+00  0.51109989000E-03 0.  1.
     -623    1    1    2    0    0  0.29412835995E-02 -0.21945015508E-02  0.54220126069E-04  0.17130000004E+03  0.17130000000E+03 0.  1.
      622    1    1    2    0    0 -0.85083380971E-02  0.50789996071E-02  0.32596499871E+01  0.32596774727E+01  0.90000000000E-02 0.  1.
</event>
<event>
 5   0  0.6135700E+09  0.9118800E+02  0.7818608E-02  0.1180000E+00
       11   -1    0    0    0    0  0.00000000000E+00  0.00000000000E+00  0.39999999673E+01  0.40000000000E+01  0.51109989000E-03 0. -1.
     -623   -1    0    0    0    0  0.00000000000E+00  0.00000000000E+00  0.12525980253E-10  0.17130000000E+03  0.17130000000E+03 0. -1.
       11    1    1    2    0    0 -0.21438657847E-02  0.10369421505E-02  0.15187642495E-02  0.28704138389E-02  0.51109989000E-03 0. -1.
     -623    1    1    2    0    0  0.19097025869E-02 -0.70061991947E-03  0.13617877320E-02  0.17130000002E+03  0.17130000000E+03 0. -1.
      622    1    1    2    0    0  0.23416319778E-03 -0.33632223108E-03  0.39971194154E+01  0.39971295687E+01  0.90000000000E-02 0. -1.
</event>
<event>
 5   0  0.6135700E+09  0.9118800E+02  0.7818608E-02  0.1180000E+00
       11   -1    0    0    0    0  0.00000000000E+00  0.00000000000E+00  0.39999999673E+01  0.40000000000E+01  0.51109989000E-03 0.  1.
     -623   -1    0    0    0    0  0.00000000000E+00  0.00000000000E+00  0.12525980253E-10  0.17130000000E+03  0.17130000000E+03 0.  1.
       11    1    1    2    0    0  0.51956156335E-03  0.12847390713E-02  0.66634365140E+00  0.66634528848E+00  0.51109989000E-03 0.  1.
     -623    1    1    2    0    0 -0.11251887199E-03  0.11518159921E-02  0.14672489111E-04  0.17130000000E+03  0.17130000000E+03 0.  1.
      622    1    1    2    0    0 -0.40704269135E-03 -0.24365550634E-02  0.33336416435E+01  0.33336547076E+01  0.90000000000E-02 0.  0.
</event>
<event>
 5   0  0.6135700E+09  0.9118800E+02  0.7818608E-02  0.1180000E+00
       11   -1    0    0    0    0  0.00000000000E+00  0.00000000000E+00  0.39999999673E+01  0.40000000000E+01  0.51109989000E-03 0.  1.
     -623   -1    0    0    0    0  0.00000000000E+00  0.00000000000E+00  0.12525980253E-10  0.17130000000E+03  0.17130000000E+03 0. -1.
       11    1    1    2    0    0  0.20607038432E-02 -0.15733418519E-02  0.20295755697E+00  0.20297475966E+00  0.51109989000E-03 0.  1.
     -623    1    1    2    0    0 -0.56296917423E-04 -0.16203037054E-03  0.28762015632E-04  0.17130000000E+03  0.17130000000E+03 0. -1.
      622    1    1    2    0    0 -0.20044069258E-02  0.17353722222E-02  0.37970136428E+01  0.37970252346E+01  0.90000000000E-02 0.  1.
</event>
<event>
 5   0  0.6135700E+09  0.9118800E+02  0.7818608E-02  0.1180000E+00
       11   -1    0    0    0    0  0.00000000000E+00  0.00000000000E+00  0.39999999673E+01  0.40000000000E+01  0.51109989000E-03 0. -1.
     -623   -1    0    0    0    0  0.00000000000E+00  0.00000000000E+00  0.12525980253E-10  0.17130000000E+03  0.17130000000E+03 0. -1.
       11    1    1    2    0    0  0.74695745839E-03 -0.12262659336E-02  0.89272997330E-01  0.89286006445E-01  0.51109989000E-03 0. -1.
     -623    1    1    2    0    0  0.65676921659E-03  0.14618884577E-02  0.23599180742E-04  0.17130000001E+03  0.17130000000E+03 0. -1.
      622    1    1    2    0    0 -0.14037266750E-02 -0.23562252402E-03  0.39107033708E+01  0.39107139861E+01  0.90000000000E-02 0. -1.
</event>
<event>
 5   0  0.6135700E+09  0.9118800E+02  0.7818608E-02  0.1180000E+00
       11   -1    0    0    0    0  0.00000000000E+00  0.00000000000E+00  0.39999999673E+01  0.40000000000E+01  0.51109989000E-03 0. -1.
     -623   -1    0    0    0    0  0.00000000000E+00  0.00000000000E+00  0.12525980253E-10  0.17130000000E+03  0.17130000000E+03 0. -1.
       11    1    1    2    0    0 -0.21403983762E-02 -0.52583345432E-04  0.86576085376E+00  0.86576365204E+00  0.51109989000E-03 0. -1.
     -623    1    1    2    0    0  0.14509907985E-02  0.32242496787E-03  0.15781363116E-04  0.17130000001E+03  0.17130000000E+03 0. -1.
      622    1    1    2    0    0  0.68940757928E-03 -0.26984162210E-03  0.31342233280E+01  0.31342363373E+01  0.90000000000E-02 0. -1.
</event>
<event>
 5   0  0.6135700E+09  0.9118800E+02  0.7818608E-02  0.1180000E+00
       11   -1    0    0    0    0  0.00000000000E+00  0.00000000000E+00  0.39999999673E+01  0.40000000000E+01  0.51109989000E-03 0. -1.
     -623   -1    0    0    0    0  0.00000000000E+00  0.00000000000E+00  0.12525980253E-10  0.17130000000E+03  0.17130000000E+03 0.  1.
       11    1    1    2    0    0  0.13554067236E-02  0.16660453273E-03  0.73110478079E-01  0.73125016995E-01  0.51109989000E-03 0. -1.
     -623    1    1    2    0    0  0.10632847425E-02  0.15091418672E-02  0.25932214441E-04  0.17130000001E+03  0.17130000000E+03 0.  1.
      622    1    1    2    0    0 -0.24186914661E-02 -0.16757464000E-02  0.39268635571E+01  0.39268749731E+01  0.90000000000E-02 0. -1.
</event>
<event>
 5   0  0.6135700E+09  0.9118800E+02  0.7818608E-02  0.1180000E+00
       11   -1    0    0    0    0  0.00000000000E+00  0.00000000000E+00  0.39999999673E+01  0.40000000000E+01  0.51109989000E-03 0.  1.
     -623   -1    0    0    0    0  0.00000000000E+00  0.00000000000E+00  0.12525980253E-10  0.17130000000E+03  0.17130000000E+03 0. -1.
       11    1    1    2    0    0  0.40743620820E-02 -0.43744850737E-02  0.21203267757E+00  0.21211754789E+00  0.51109989000E-03 0.  1.
     -623    1    1    2    0    0  0.13029657240E-03 -0.47963889677E-02  0.10903246965E-03  0.17130000007E+03  0.17130000000E+03 0. -1.
      622    1    1    2    0    0 -0.42046586544E-02  0.91708740414E-02  0.37878582573E+01  0.37878823849E+01  0.90000000000E-02 0.  1.
</event>
<event>
 5   0  0.6135700E+09  0.9118800E+02  0.7818608E-02  0.1180000E+00
       11   -1    0    0    0    0  0.00000000000E+00  0.00000000000E+00  0.39999999673E+01  0.40000000000E+01  0.51109989000E-03 0.  1.
     -623   -1    0    0    0    0  0.00000000000E+00  0.00000000000E+00  0.12525980253E-10  0.17130000000E+03  0.17130000000E+03 0. -1.
       11    1    1    2    0    0 -0.54698016033E-02 -0.46445502207E-02  0.27879214894E+00  0.27888494780E+00  0.51109989000E-03 0.  1.
     -623    1    1    2    0    0  0.17311179161E-01 -0.15953322150E-02  0.12860508935E-03  0.17130000088E+03  0.17130000000E+03 0. -1.
      622    1    1    2    0    0 -0.11841377563E-01  0.62398824361E-02  0.37210792144E+01  0.37211141710E+01  0.90000000000E-02 0.  1.
</event>
<event>
 5   0  0.6135700E+09  0.9118800E+02  0.7818608E-02  0.1180000E+00
       11   -1    0    0    0    0  0.00000000000E+00  0.00000000000E+00  0.39999999673E+01  0.40000000000E+01  0.51109989000E-03 0. -1.
     -623   -1    0    0    0    0  0.00000000000E+00  0.00000000000E+00  0.12525980253E-10  0.17130000000E+03  0.17130000000E+03 0. -1.
       11    1    1    2    0    0 -0.82996372573E-03  0.98725973536E-02  0.11027983404E+01  0.11028429615E+01  0.51109989000E-03 0. -1.
     -623    1    1    2    0    0 -0.77056942789E-03 -0.19174976596E-02  0.69944097851E-04  0.17130000001E+03  0.17130000000E+03 0. -1.
      622    1    1    2    0    0  0.16005331536E-02 -0.79550996940E-02  0.28971316829E+01  0.28971570260E+01  0.90000000000E-02 0.  0.
</event>
<event>
 5   0  0.6135700E+09  0.9118800E+02  0.7818608E-02  0.1180000E+00
       11   -1    0    0    0    0  0.00000000000E+00  0.00000000000E+00  0.39999999673E+01  0.40000000000E+01  0.51109989000E-03 0. -1.
     -623   -1    0    0    0    0  0.00000000000E+00  0.00000000000E+00  0.12525980253E-10  0.17130000000E+03  0.17130000000E+03 0.  1.
       11    1    1    2    0    0  0.53748856752E-03 -0.75523593038E-03  0.12652746815E-01  0.12696948442E-01  0.51109989000E-03 0.  1.
     -623    1    1    2    0    0  0.26766642979E-04 -0.73116491488E-04  0.54452236498E-04  0.17130000000E+03  0.17130000000E+03 0.  1.
      622    1    1    2    0    0 -0.56425521050E-03  0.82835242187E-03  0.39872927683E+01  0.39873030515E+01  0.90000000000E-02 0. -1.
</event>
<event>
 5   0  0.6135700E+09  0.9118800E+02  0.7818608E-02  0.1180000E+00
       11   -1    0    0    0    0  0.00000000000E+00  0.00000000000E+00  0.39999999673E+01  0.40000000000E+01  0.51109989000E-03 0. -1.
     -623   -1    0    0    0    0  0.00000000000E+00  0.00000000000E+00  0.12525980253E-10  0.17130000000E+03  0.17130000000E+03 0. -1.
       11    1    1    2    0    0 -0.17686048468E-02  0.26659177253E-02  0.50403006696E+00  0.50404047923E+00  0.51109989000E-03 0. -1.
     -623    1    1    2    0    0 -0.23376570245E-03 -0.22567391876E-02  0.22576872466E-04  0.17130000002E+03  0.17130000000E+03 0. -1.
      622    1    1    2    0    0  0.20023705489E-02 -0.40917854076E-03  0.34959473180E+01  0.34959595002E+01  0.90000000000E-02 0. -1.
</event>
<event>
 5   0  0.6135700E+09  0.9118800E+02  0.7818608E-02  0.1180000E+00
       11   -1    0    0    0    0  0.00000000000E+00  0.00000000000E+00  0.39999999673E+01  0.40000000000E+01  0.51109989000E-03 0.  1.
     -623   -1    0    0    0    0  0.00000000000E+00  0.00000000000E+00  0.12525980253E-10  0.17130000000E+03  0.17130000000E+03 0.  1.
       11    1    1    2    0    0  0.16517334337E-02  0.99104678074E-03  0.10960927221E+00  0.10962738788E+00  0.51109989000E-03 0.  1.
     -623    1    1    2    0    0  0.16407570158E-02 -0.12830226471E-02  0.29910227203E-04  0.17130000001E+03  0.17130000000E+03 0.  1.
      622    1    1    2    0    0 -0.32924904495E-02  0.29197586633E-03  0.38903607849E+01  0.38903725995E+01  0.90000000000E-02 0.  1.
</event>
<event>
 5   0  0.6135700E+09  0.9118800E+02  0.7818608E-02  0.1180000E+00
       11   -1    0    0    0    0  0.00000000000E+00  0.00000000000E+00  0.39999999673E+01  0.40000000000E+01  0.51109989000E-03 0.  1.
     -623   -1    0    0    0    0  0.00000000000E+00  0.00000000000E+00  0.12525980253E-10  0.17130000000E+03  0.17130000000E+03 0.  1.
       11    1    1    2    0    0  0.10220537188E-02 -0.48031915864E-03  0.26297796429E+00  0.26298088567E+00  0.51109989000E-03 0.  1.
     -623    1    1    2    0    0 -0.34726556710E-03  0.13995668338E-02  0.13906317173E-04  0.17130000001E+03  0.17130000000E+03 0.  1.
      622    1    1    2    0    0 -0.67478815174E-03 -0.91924767519E-03  0.37370080968E+01  0.37370191083E+01  0.90000000000E-02 0.  1.
</event>
<event>
 5   0  0.6135700E+09  0.9118800E+02  0.7818608E-02  0.1180000E+00
       11   -1    0    0    0    0  0.00000000000E+00  0.00000000000E+00  0.39999999673E+01  0.40000000000E+01  0.51109989000E-03 0. -1.
     -623   -1    0    0    0    0  0.00000000000E+00  0.00000000000E+00  0.12525980253E-10  0.17130000000E+03  0.17130000000E+03 0.  1.
       11    1    1    2    0    0  0.70097882708E-04  0.73125644668E-03  0.47921180876E-01  0.47929536275E-01  0.51109989000E-03 0. -1.
     -623    1    1    2    0    0 -0.18250364600E-02 -0.83936879893E-03  0.18973470012E-04  0.17130000001E+03  0.17130000000E+03 0.  1.
      622    1    1    2    0    0  0.17549385773E-02  0.10811235224E-03  0.39520598130E+01  0.39520704519E+01  0.90000000000E-02 0. -1.
</event>
<event>
 5   0  0.6135700E+09  0.9118800E+02  0.7818608E-02  0.1180000E+00
       11   -1    0    0    0    0  0.00000000000E+00  0.00000000000E+00  0.39999999673E+01  0.40000000000E+01  0.51109989000E-03 0.  1.
     -623   -1    0    0    0    0  0.00000000000E+00  0.00000000000E+00  0.12525980253E-10  0.17130000000E+03  0.17130000000E+03 0.  1.
       11    1    1    2    0    0  0.10854660671E-02 -0.34288311321E-03  0.54867820083E-01  0.54882007125E-01  0.51109989000E-03 0. -1.
     -623    1    1    2    0    0  0.19955667676E-03 -0.63221527362E-04  0.24650581735E-04  0.17130000000E+03  0.17130000000E+03 0.  1.
      622    1    1    2    0    0 -0.12850227438E-02  0.40610464057E-03  0.39451074967E+01  0.39451179927E+01  0.90000000000E-02 0.  1.
</event>
<event>
 5   0  0.6135700E+09  0.9118800E+02  0.7818608E-02  0.1180000E+00
       11   -1    0    0    0    0  0.00000000000E+00  0.00000000000E+00  0.39999999673E+01  0.40000000000E+01  0.51109989000E-03 0. -1.
     -623   -1    0    0    0    0  0.00000000000E+00  0.00000000000E+00  0.12525980253E-10  0.17130000000E+03  0.17130000000E+03 0.  1.
       11    1    1    2    0    0  0.27219854392E-03  0.28013438957E-03  0.60907836449E-01  0.60911233193E-01  0.51109989000E-03 0. -1.
     -623    1    1    2    0    0 -0.25276881102E-03 -0.15287006101E-02  0.13850618433E-04  0.17130000001E+03  0.17130000000E+03 0.  1.
      622    1    1    2    0    0 -0.19429732898E-04  0.12485662205E-02  0.39390782803E+01  0.39390887598E+01  0.90000000000E-02 0. -1.
</event>
<event>
 5   0  0.6135700E+09  0.9118800E+02  0.7818608E-02  0.1180000E+00
       11   -1    0    0    0    0  0.00000000000E+00  0.00000000000E+00  0.39999999673E+01  0.40000000000E+01  0.51109989000E-03 0. -1.
     -623   -1    0    0    0    0  0.00000000000E+00  0.00000000000E+00  0.12525980253E-10  0.17130000000E+03  0.17130000000E+03 0. -1.
       11    1    1    2    0    0  0.19501343527E-02 -0.16804246699E-03  0.21726417807E+00  0.21727359609E+00  0.51109989000E-03 0. -1.
     -623    1    1    2    0    0 -0.10238393684E-03 -0.20808010788E-03  0.20562100876E-04  0.17130000000E+03  0.17130000000E+03 0. -1.
      622    1    1    2    0    0 -0.18477504158E-02  0.37612257487E-03  0.37827152272E+01  0.37827264037E+01  0.90000000000E-02 0. -1.
</event>
<event>
 5   0  0.6135700E+09  0.9118800E+02  0.7818608E-02  0.1180000E+00
       11   -1    0    0    0    0  0.00000000000E+00  0.00000000000E+00  0.39999999673E+01  0.40000000000E+01  0.51109989000E-03 0.  1.
     -623   -1    0    0    0    0  0.00000000000E+00  0.00000000000E+00  0.12525980253E-10  0.17130000000E+03  0.17130000000E+03 0. -1.
       11    1    1    2    0    0  0.11723178222E-02 -0.69889178253E-03  0.58684288435E-01  0.58702382499E-01  0.51109989000E-03 0.  1.
     -623    1    1    2    0    0 -0.36874069909E-04  0.42670204960E-03  0.28510731739E-04  0.17130000000E+03  0.17130000000E+03 0. -1.
      622    1    1    2    0    0 -0.11354437521E-02  0.27218973128E-03  0.39412871836E+01  0.39412976324E+01  0.90000000000E-02 0.  1.
</event>
<event>
 5   0  0.6135700E+09  0.9118800E+02  0.7818608E-02  0.1180000E+00
       11   -1    0    0    0    0  0.00000000000E+00  0.00000000000E+00  0.39999999673E+01  0.40000000000E+01  0.51109989000E-03 0.  1.
     -623   -1    0    0    0    0  0.00000000000E+00  0.00000000000E+00  0.12525980253E-10  0.17130000000E+03  0.17130000000E+03 0. -1.
       11    1    1    2    0    0 -0.57198775172E-03 -0.29911627334E-04  0.12465682891E+00  0.12465919253E+00  0.51109989000E-03 0.  1.
     -623    1    1    2    0    0  0.17726636854E-04  0.85341050160E-05  0.12821382025E-04  0.17130000000E+03  0.17130000000E+03 0. -1.
      622    1    1    2    0    0  0.55426111476E-03  0.21377522269E-04  0.38753303401E+01  0.38753408305E+01  0.90000000000E-02 0.  1.
</event>
<event>
 5   0  0.6135700E+09  0.9118800E+02  0.7818608E-02  0.1180000E+00
       11   -1    0    0    0    0  0.00000000000E+00  0.00000000000E+00  0.39999999673E+01  0.40000000000E+01  0.51109989000E-03 0. -1.
     -623   -1    0    0    0    0  0.00000000000E+00  0.00000000000E+00  0.12525980253E-10  0.17130000000E+03  0.17130000000E+03 0.  1.
       11    1    1    2    0    0 -0.85859138593E-03  0.43736665684E-03  0.50172293975E+00  0.50172412535E+00  0.51109989000E-03 0. -1.
     -623    1    1    2    0    0  0.26515612305E-03 -0.33352264520E-03  0.12782519899E-04  0.17130000000E+03  0.17130000000E+03 0.  1.
      622    1    1    2    0    0  0.59343526287E-03 -0.10384401164E-03  0.34982642451E+01  0.34982758741E+01  0.90000000000E-02 0. -1.
</event>
<event>
 5   0  0.6135700E+09  0.9118800E+02  0.7818608E-02  0.1180000E+00
       11   -1    0    0    0    0  0.00000000000E+00  0.00000000000E+00  0.39999999673E+01  0.40000000000E+01  0.51109989000E-03 0.  1.
     -623   -1    0    0    0    0  0.00000000000E+00  0.00000000000E+00  0.12525980253E-10  0.17130000000E+03  0.17130000000E+03 0. -1.
       11    1    1    2    0    0  0.69209003947E-03  0.56829094534E-03  0.64607722109E-02  0.65425334451E-02  0.51109989000E-03 0.  1.
     -623    1    1    2    0    0 -0.66816916336E-04  0.10906679143E-03  0.91976664010E-04  0.17130000000E+03  0.17130000000E+03 0. -1.
      622    1    1    2    0    0 -0.62527312307E-03 -0.67735773686E-03  0.39934472219E+01  0.39934574699E+01  0.90000000000E-02 0.  1.
</event>
<event>
 5   0  0.6135700E+09  0.9118800E+02  0.7818608E-02  0.1180000E+00
       11   -1    0    0    0    0  0.00000000000E+00  0.00000000000E+00  0.39999999673E+01  0.40000000000E+01  0.51109989000E-03 0. -1.
     -623   -1    0    0    0    0  0.00000000000E+00  0.00000000000E+00  0.12525980253E-10  0.17130000000E+03  0.17130000000E+03 0.  1.
       11    1    1    2    0    0 -0.11064433257E-02  0.29655339873E-02  0.18836729294E+00  0.18839457764E+00  0.51109989000E-03 0. -1.
     -623    1    1    2    0    0  0.56238016925E-04 -0.54986375005E-04  0.39133467269E-04  0.17130000000E+03  0.17130000000E+03 0.  1.
      622    1    1    2    0    0  0.10502053087E-02 -0.29105476122E-02  0.38115935426E+01  0.38116054240E+01  0.90000000000E-02 0. -1.
</event>
<event>
 5   0  0.6135700E+09  0.9118800E+02  0.7818608E-02  0.1180000E+00
       11   -1    0    0    0    0  0.00000000000E+00  0.00000000000E+00  0.39999999673E+01  0.40000000000E+01  0.51109989000E-03 0.  1.
     -623   -1    0    0    0    0  0.00000000000E+00  0.00000000000E+00  0.12525980253E-10  0.17130000000E+03  0.17130000000E+03 0. -1.
       11    1    1    2    0    0  0.67764365688E-03 -0.13752735245E-02  0.28286605235E+00  0.28287066898E+00  0.51109989000E-03 0.  1.
     -623    1    1    2    0    0 -0.87196033518E-03 -0.14776434548E-03  0.15798900669E-04  0.17130000000E+03  0.17130000000E+03 0. -1.
      622    1    1    2    0    0  0.19431667830E-03  0.15230378700E-02  0.37171181161E+01  0.37171293287E+01  0.90000000000E-02 0.  1.
</event>
<event>
 5   0  0.6135700E+09  0.9118800E+02  0.7818608E-02  0.1180000E+00
       11   -1    0    0    0    0  0.00000000000E+00  0.00000000000E+00  0.39999999673E+01  0.40000000000E+01  0.51109989000E-03 0. -1.
     -623   -1    0    0    0    0  0.00000000000E+00  0.00000000000E+00  0.12525980253E-10  0.17130000000E+03  0.17130000000E+03 0.  1.
       11    1    1    2    0    0 -0.12606131350E-02  0.19487622015E-03  0.32536806232E-01  0.32565811906E-01  0.51109989000E-03 0. -1.
     -623    1    1    2    0    0  0.47690326106E-06 -0.60381995051E-03  0.39403423186E-04  0.17130000000E+03  0.17130000000E+03 0.  1.
      622    1    1    2    0    0  0.12601362317E-02  0.40894373157E-03  0.39674237657E+01  0.39674341951E+01  0.90000000000E-02 0. -1.
</event>
<event>
 5   0  0.6135700E+09  0.9118800E+02  0.7818608E-02  0.1180000E+00
       11   -1    0    0    0    0  0.00000000000E+00  0.00000000000E+00  0.39999999673E+01  0.40000000000E+01  0.51109989000E-03 0. -1.
     -623   -1    0    0    0    0  0.00000000000E+00  0.00000000000E+00  0.12525980253E-10  0.17130000000E+03  0.17130000000E+03 0. -1.
       11    1    1    2    0    0 -0.39404955442E-02  0.78453625531E-02  0.44200353024E-01  0.45066724395E-01  0.51109989000E-03 0. -1.
     -623    1    1    2    0    0 -0.44075443950E-03  0.13043868731E-02  0.88959776290E-03  0.17130000001E+03  0.17130000000E+03 0. -1.
      622    1    1    2    0    0  0.43812499837E-02 -0.91497494262E-02  0.39549100166E+01  0.39549332678E+01  0.90000000000E-02 0. -1.
</event>
<event>
 5   0  0.6135700E+09  0.9118800E+02  0.7818608E-02  0.1180000E+00
       11   -1    0    0    0    0  0.00000000000E+00  0.00000000000E+00  0.39999999673E+01  0.40000000000E+01  0.51109989000E-03 0.  1.
     -623   -1    0    0    0    0  0.00000000000E+00  0.00000000000E+00  0.12525980253E-10  0.17130000000E+03  0.17130000000E+03 0.  1.
       11    1    1    2    0    0 -0.74415245328E-02  0.30247986982E-01  0.11183553938E+01  0.11187892407E+01  0.51109989000E-03 0.  1.
     -623    1    1    2    0    0  0.11518127066E-01  0.10391598118E-02  0.62102639899E-03  0.17130000039E+03  0.17130000000E+03 0.  1.
      622    1    1    2    0    0 -0.40766025335E-02 -0.31287146794E-01  0.28810235472E+01  0.28812103678E+01  0.90000000000E-02 0.  1.
</event>
<event>
 5   0  0.6135700E+09  0.9118800E+02  0.7818608E-02  0.1180000E+00
       11   -1    0    0    0    0  0.00000000000E+00  0.00000000000E+00  0.39999999673E+01  0.40000000000E+01  0.51109989000E-03 0.  1.
     -623   -1    0    0    0    0  0.00000000000E+00  0.00000000000E+00  0.12525980253E-10  0.17130000000E+03  0.17130000000E+03 0. -1.
       11    1    1    2    0    0 -0.15814253620E-03 -0.36511152823E-03  0.12810279830E-01  0.12826644453E-01  0.51109989000E-03 0.  1.
     -623    1    1    2    0    0  0.14504331234E-04  0.44653883687E-03  0.26493570497E-04  0.17130000000E+03  0.17130000000E+03 0. -1.
      622    1    1    2    0    0  0.14363820491E-03 -0.81427310310E-04  0.39871632089E+01  0.39871733699E+01  0.90000000000E-02 0.  1.
</event>
<event>
 5   0  0.6135700E+09  0.9118800E+02  0.7818608E-02  0.1180000E+00
       11   -1    0    0    0    0  0.00000000000E+00  0.00000000000E+00  0.39999999673E+01  0.40000000000E+01  0.51109989000E-03 0. -1.
     -623   -1    0    0    0    0  0.00000000000E+00  0.00000000000E+00  0.12525980253E-10  0.17130000000E+03  0.17130000000E+03 0.  1.
       11    1    1    2    0    0  0.12548857192E-03  0.75671092100E-04  0.46215854948E-01  0.46218913284E-01  0.51109989000E-03 0. -1.
     -623    1    1    2    0    0 -0.36116010679E-03  0.30471859809E-04  0.13277900918E-04  0.17130000000E+03  0.17130000000E+03 0.  1.
      622    1    1    2    0    0  0.23567153697E-03 -0.10614295209E-03  0.39537708578E+01  0.39537811096E+01  0.90000000000E-02 0. -1.
</event>
<event>
 5   0  0.6135700E+09  0.9118800E+02  0.7818608E-02  0.1180000E+00
       11   -1    0    0    0    0  0.00000000000E+00  0.00000000000E+00  0.39999999673E+01  0.40000000000E+01  0.51109989000E-03 0.  1.
     -623   -1    0    0    0    0  0.00000000000E+00  0.00000000000E+00  0.12525980253E-10  0.17130000000E+03  0.17130000000E+03 0.  1.
       11    1    1    2    0    0  0.62137830122E-03  0.87435717048E-03  0.64795878430E-02  0.65876316064E-02  0.51109989000E-03 0.  1.
     -623    1    1    2    0    0 -0.10670651118E-03  0.35143902818E-03  0.11837457116E-03  0.17130000000E+03  0.17130000000E+03 0.  1.
      622    1    1    2    0    0 -0.51467179004E-03 -0.12257961987E-02  0.39934020049E+01  0.39934123680E+01  0.90000000000E-02 0.  1.
</event>
<event>
 5   0  0.6135700E+09  0.9118800E+02  0.7818608E-02  0.1180000E+00
       11   -1    0    0    0    0  0.00000000000E+00  0.00000000000E+00  0.39999999673E+01  0.40000000000E+01  0.51109989000E-03 0. -1.
     -623   -1    0    0    0    0  0.00000000000E+00  0.00000000000E+00  0.12525980253E-10  0.17130000000E+03  0.17130000000E+03 0.  1.
       11    1    1    2    0    0 -0.15188900010E-03 -0.49471012010E-03  0.22827540446E+00  0.22827656321E+00  0.51109989000E-03 0. -1.
     -623    1    1    2    0    0  0.64684200134E-03  0.46465841001E-03  0.11898373609E-04  0.17130000000E+03  0.17130000000E+03 0.  1.
      622    1    1    2    0    0 -0.49495299783E-03  0.30051712548E-04  0.37717126434E+01  0.37717234138E+01  0.90000000000E-02 0. -1.
</event>
<event>
 5   0  0.6135700E+09  0.9118800E+02  0.7818608E-02  0.1180000E+00
       11   -1    0    0    0    0  0.00000000000E+00  0.00000000000E+00  0.39999999673E+01  0.40000000000E+01  0.51109989000E-03 0.  1.
     -623   -1    0    0    0    0  0.00000000000E+00  0.00000000000E+00  0.12525980253E-10  0.17130000000E+03  0.17130000000E+03 0. -1.
       11    1    1    2    0    0  0.33850474479E-04 -0.49712915775E-03  0.11310031247E+00  0.11310256490E+00  0.51109989000E-03 0.  1.
     -623    1    1    2    0    0 -0.90871371592E-04  0.16281319936E-03  0.12654323718E-04  0.17130000000E+03  0.17130000000E+03 0. -1.
      622    1    1    2    0    0  0.57020897784E-04  0.33431595719E-03  0.38868870301E+01  0.38868974645E+01  0.90000000000E-02 0.  1.
</event>
<event>
 5   0  0.6135700E+09  0.9118800E+02  0.7818608E-02  0.1180000E+00
       11   -1    0    0    0    0  0.00000000000E+00  0.00000000000E+00  0.39999999673E+01  0.40000000000E+01  0.51109989000E-03 0.  1.
     -623   -1    0    0    0    0  0.00000000000E+00  0.00000000000E+00  0.12525980253E-10  0.17130000000E+03  0.17130000000E+03 0. -1.
       11    1    1    2    0    0  0.17531409038E-02 -0.11316441925E-03  0.15309662788E-01  0.15418602628E-01  0.51109989000E-03 0.  1.
     -623    1    1    2    0    0  0.15998629370E-03  0.86211978758E-03  0.11960334463E-03  0.17130000000E+03  0.17130000000E+03 0. -1.
      622    1    1    2    0    0 -0.19131271976E-02 -0.74895536886E-03  0.39845707037E+01  0.39845813975E+01  0.90000000000E-02 0.  1.
</event>
<event>
 5   0  0.6135700E+09  0.9118800E+02  0.7818608E-02  0.1180000E+00
       11   -1    0    0    0    0  0.00000000000E+00  0.00000000000E+00  0.39999999673E+01  0.40000000000E+01  0.51109989000E-03 0. -1.
     -623   -1    0    0    0    0  0.00000000000E+00  0.00000000000E+00  0.12525980253E-10  0.17130000000E+03  0.17130000000E+03 0. -1.
       11    1    1    2    0    0 -0.25902976336E-03  0.70405282912E-03  0.14073404600E-01  0.14102649642E-01  0.51109989000E-03 0. -1.
     -623    1    1    2    0    0 -0.49423346299E-03 -0.20860015279E-03  0.39476053080E-04  0.17130000000E+03  0.17130000000E+03 0. -1.
      622    1    1    2    0    0  0.75326322625E-03 -0.49545267637E-03  0.39858870859E+01  0.39858973487E+01  0.90000000000E-02 0. -1.
</event>
<event>
 5   0  0.6135700E+09  0.9118800E+02  0.7818608E-02  0.1180000E+00
       11   -1    0    0    0    0  0.00000000000E+00  0.00000000000E+00  0.39999999673E+01  0.40000000000E+01  0.51109989000E-03 0.  1.
     -623   -1    0    0    0    0  0.00000000000E+00  0.00000000000E+00  0.12525980253E-10  0.17130000000E+03  0.17130000000E+03 0. -1.
       11    1    1    2    0    0  0.35926441303E-03  0.26240156159E-02  0.15583896008E+00  0.15586230214E+00  0.51109989000E-03 0.  1.
     -623    1    1    2    0    0 -0.71733972116E-03  0.76761024672E-03  0.35361062434E-04  0.17130000000E+03  0.17130000000E+03 0. -1.
      622    1    1    2    0    0  0.35807530807E-03 -0.33916258625E-02  0.38441256459E+01  0.38441376943E+01  0.90000000000E-02 0.  1.
</event>
<event>
 5   0  0.6135700E+09  0.9118800E+02  0.7818608E-02  0.1180000E+00
       11   -1    0    0    0    0  0.00000000000E+00  0.00000000000E+00  0.39999999673E+01  0.40000000000E+01  0.51109989000E-03 0.  1.
     -623   -1    0    0    0    0  0.00000000000E+00  0.00000000000E+00  0.12525980253E-10  0.17130000000E+03  0.17130000000E+03 0. -1.
       11    1    1    2    0    0 -0.71001951794E-03 -0.16074869254E-02  0.31941647714E-01  0.31994034189E-01  0.51109989000E-03 0.  1.
     -623    1    1    2    0    0  0.58888257392E-04  0.19805154185E-02  0.62642914963E-04  0.17130000001E+03  0.17130000000E+03 0. -1.
      622    1    1    2    0    0  0.65113126054E-03 -0.37302849349E-03  0.39679956775E+01  0.39680059551E+01  0.90000000000E-02 0.  1.
</event>
<event>
 5   0  0.6135700E+09  0.9118800E+02  0.7818608E-02  0.1180000E+00
       11   -1    0    0    0    0  0.00000000000E+00  0.00000000000E+00  0.39999999673E+01  0.40000000000E+01  0.51109989000E-03 0.  1.
     -623   -1    0    0    0    0  0.00000000000E+00  0.00000000000E+00  0.12525980253E-10  0.17130000000E+03  0.17130000000E+03 0. -1.
       11    1    1    2    0    0 -0.36683984271E-04  0.69873523463E-03  0.11402280764E+00  0.11402609990E+00  0.51109989000E-03 0.  1.
     -623    1    1    2    0    0  0.92882062206E-03  0.22945204240E-03  0.13897670757E-04  0.17130000000E+03  0.17130000000E+03 0. -1.
      622    1    1    2    0    0 -0.89213663779E-03 -0.92818727703E-03  0.38859632621E+01  0.38859738974E+01  0.90000000000E-02 0.  1.
</event>
<event>
 5   0  0.6135700E+09  0.9118800E+02  0.7818608E-02  0.1180000E+00
       11   -1    0    0    0    0  0.00000000000E+00  0.00000000000E+00  0.39999999673E+01  0.40000000000E+01  0.51109989000E-03 0.  1.
     -623   -1    0    0    0    0  0.00000000000E+00  0.00000000000E+00  0.12525980253E-10  0.17130000000E+03  0.17130000000E+03 0.  1.
       11    1    1    2    0    0 -0.12485792292E-02 -0.39705257066E-03  0.17184880810E+00  0.17185456255E+00  0.51109989000E-03 0.  1.
     -623    1    1    2    0    0  0.10249695402E-02 -0.13503406712E-02  0.16715088529E-04  0.17130000001E+03  0.17130000000E+03 0.  1.
      622    1    1    2    0    0  0.22360968505E-03  0.17473932471E-02  0.38281344596E+01  0.38281454445E+01  0.90000000000E-02 0.  1.
</event>
<event>
 5   0  0.6135700E+09  0.9118800E+02  0.7818608E-02  0.1180000E+00
       11   -1    0    0    0    0  0.00000000000E+00  0.00000000000E+00  0.39999999673E+01  0.40000000000E+01  0.51109989000E-03 0.  1.
     -623   -1    0    0    0    0  0.00000000000E+00  0.00000000000E+00  0.12525980253E-10  0.17130000000E+03  0.17130000000E+03 0.  1.
       11    1    1    2    0    0  0.29932195514E-02 -0.65097603936E-02  0.54311303642E+00  0.54316053603E+00  0.51109989000E-03 0.  1.
     -623    1    1    2    0    0  0.49844944820E-04  0.18338340817E-03  0.66311411647E-04  0.17130000000E+03  0.17130000000E+03 0.  1.
      622    1    1    2    0    0 -0.30430644962E-02  0.63263769854E-02  0.34568206195E+01  0.34568394639E+01  0.90000000000E-02 0.  1.
</event>
<event>
 5   0  0.6135700E+09  0.9118800E+02  0.7818608E-02  0.1180000E+00
       11   -1    0    0    0    0  0.00000000000E+00  0.00000000000E+00  0.39999999673E+01  0.40000000000E+01  0.51109989000E-03 0.  1.
     -623   -1    0    0    0    0  0.00000000000E+00  0.00000000000E+00  0.12525980253E-10  0.17130000000E+03  0.17130000000E+03 0. -1.
       11    1    1    2    0    0 -0.12496363678E-02 -0.12972133483E-02  0.14046130877E+00  0.14047378702E+00  0.51109989000E-03 0.  1.
     -623    1    1    2    0    0 -0.27634278033E-03  0.51556204964E-04  0.23442055370E-04  0.17130000000E+03  0.17130000000E+03 0. -1.
      622    1    1    2    0    0  0.15259791490E-02  0.12456571431E-02  0.38595152300E+01  0.38595262262E+01  0.90000000000E-02 0.  1.
</event>
<event>
 5   0  0.6135700E+09  0.9118800E+02  0.7818608E-02  0.1180000E+00
       11   -1    0    0    0    0  0.00000000000E+00  0.00000000000E+00  0.39999999673E+01  0.40000000000E+01  0.51109989000E-03 0.  1.
     -623   -1    0    0    0    0  0.00000000000E+00  0.00000000000E+00  0.12525980253E-10  0.17130000000E+03  0.17130000000E+03 0.  1.
       11    1    1    2    0    0 -0.14948407174E-02 -0.93977872390E-03  0.58652961554E+00  0.58653249600E+00  0.51109989000E-03 0.  1.
     -623    1    1    2    0    0  0.28256448737E-03  0.10345849313E-02  0.14932548486E-04  0.17130000000E+03  0.17130000000E+03 0.  1.
      622    1    1    2    0    0  0.12122762291E-02 -0.94806210774E-04  0.34134554322E+01  0.34134675136E+01  0.90000000000E-02 0.  1.
</event>
<event>
 5   0  0.6135700E+09  0.9118800E+02  0.7818608E-02  0.1180000E+00
       11   -1    0    0    0    0  0.00000000000E+00  0.00000000000E+00  0.39999999673E+01  0.40000000000E+01  0.51109989000E-03 0.  1.
     -623   -1    0    0    0    0  0.00000000000E+00  0.00000000000E+00  0.12525980253E-10  0.17130000000E+03  0.17130000000E+03 0. -1.
       11    1    1    2    0    0  0.27752127396E-02  0.19326300452E-02  0.12577603956E+00  0.12582253460E+00  0.51109989000E-03 0.  1.
     -623    1    1    2    0    0  0.78107736530E-05 -0.30919825420E-03  0.58256272377E-04  0.17130000000E+03  0.17130000000E+03 0. -1.
      622    1    1    2    0    0 -0.27830235133E-02 -0.16234317910E-02  0.38741656715E+01  0.38741774651E+01  0.90000000000E-02 0.  1.
</event>
<event>
 5   0  0.6135700E+09  0.9118800E+02  0.7818608E-02  0.1180000E+00
       11   -1    0    0    0    0  0.00000000000E+00  0.00000000000E+00  0.39999999673E+01  0.40000000000E+01  0.51109989000E-03 0. -1.
     -623   -1    0    0    0    0  0.00000000000E+00  0.00000000000E+00  0.12525980253E-10  0.17130000000E+03  0.17130000000E+03 0.  1.
       11    1    1    2    0    0  0.10309819081E-02 -0.91674060882E-02  0.11106828243E+01  0.11107212530E+01  0.51109989000E-03 0. -1.
     -623    1    1    2    0    0  0.11924245042E-03  0.12766788702E-03  0.66783903213E-04  0.17130000000E+03  0.17130000000E+03 0.  1.
      622    1    1    2    0    0 -0.11502243586E-02  0.90397382011E-02  0.28892503616E+01  0.28892787494E+01  0.90000000000E-02 0. -1.
</event>
<event>
 5   0  0.6135700E+09  0.9118800E+02  0.7818608E-02  0.1180000E+00
       11   -1    0    0    0    0  0.00000000000E+00  0.00000000000E+00  0.39999999673E+01  0.40000000000E+01  0.51109989000E-03 0. -1.
     -623   -1    0    0    0    0  0.00000000000E+00  0.00000000000E+00  0.12525980253E-10  0.17130000000E+03  0.17130000000E+03 0. -1.
       11    1    1    2    0    0 -0.80407720021E-03 -0.79594458938E-03  0.76553313157E-01  0.76563379257E-01  0.51109989000E-03 0. -1.
     -623    1    1    2    0    0 -0.35520842880E-04  0.94897153925E-04  0.20508555194E-04  0.17130000000E+03  0.17130000000E+03 0. -1.
      622    1    1    2    0    0  0.83959804309E-03  0.70104743546E-03  0.39234261456E+01  0.39234366207E+01  0.90000000000E-02 0. -1.
</event>
<event>
 5   0  0.6135700E+09  0.9118800E+02  0.7818608E-02  0.1180000E+00
       11   -1    0    0    0    0  0.00000000000E+00  0.00000000000E+00  0.39999999673E+01  0.40000000000E+01  0.51109989000E-03 0. -1.
     -623   -1    0    0    0    0  0.00000000000E+00  0.00000000000E+00  0.12525980253E-10  0.17130000000E+03  0.17130000000E+03 0. -1.
       11    1    1    2    0    0  0.24685093113E-02 -0.20362783953E-02  0.10597735294E+01  0.10597784838E+01  0.51109989000E-03 0. -1.
     -623    1    1    2    0    0 -0.11203966041E-03 -0.12075220559E-03  0.20431929435E-04  0.17130000000E+03  0.17130000000E+03 0. -1.
      622    1    1    2    0    0 -0.23564696509E-02  0.21570306009E-02  0.29402060061E+01  0.29402215161E+01  0.90000000000E-02 0. -1.
</event>
<event>
 5   0  0.6135700E+09  0.9118800E+02  0.7818608E-02  0.1180000E+00
       11   -1    0    0    0    0  0.00000000000E+00  0.00000000000E+00  0.39999999673E+01  0.40000000000E+01  0.51109989000E-03 0. -1.
     -623   -1    0    0    0    0  0.00000000000E+00  0.00000000000E+00  0.12525980253E-10  0.17130000000E+03  0.17130000000E+03 0.  1.
       11    1    1    2    0    0 -0.30063583602E-02 -0.72493170477E-03  0.47040675058E+00  0.47041719349E+00  0.51109989000E-03 0. -1.
     -623    1    1    2    0    0 -0.28140564377E-03  0.43248923115E-03  0.23428887842E-04  0.17130000000E+03  0.17130000000E+03 0.  1.
      622    1    1    2    0    0  0.32877640042E-02  0.29244247320E-03  0.35295697917E+01  0.35295828096E+01  0.90000000000E-02 0. -1.
</event>
<event>
 5   0  0.6135700E+09  0.9118800E+02  0.7818608E-02  0.1180000E+00
       11   -1    0    0    0    0  0.00000000000E+00  0.00000000000E+00  0.39999999673E+01  0.40000000000E+01  0.51109989000E-03 0.  1.
     -623   -1    0    0    0    0  0.00000000000E+00  0.00000000000E+00  0.12525980253E-10  0.17130000000E+03  0.17130000000E+03 0.  1.
       11    1    1    2    0    0 -0.18648138475E-02  0.25603897458E-03  0.41631435268E-01  0.41677100573E-01  0.51109989000E-03 0. -1.
     -623    1    1    2    0    0  0.23106430151E-03 -0.32915028835E-04  0.56207897299E-04  0.17130000000E+03  0.17130000000E+03 0.  1.
      622    1    1    2    0    0  0.16337495459E-02 -0.22312394573E-03  0.39583123256E+01  0.39583229007E+01  0.90000000000E-02 0.  1.
</event>
<event>
 5   0  0.6135700E+09  0.9118800E+02  0.7818608E-02  0.1180000E+00
       11   -1    0    0    0    0  0.00000000000E+00  0.00000000000E+00  0.39999999673E+01  0.40000000000E+01  0.51109989000E-03 0.  1.
     -623   -1    0    0    0    0  0.00000000000E+00  0.00000000000E+00  0.12525980253E-10  0.17130000000E+03  0.17130000000E+03 0. -1.
       11    1    1    2    0    0 -0.11826312887E-02 -0.10017166616E-02  0.34491241692E-01  0.34529828092E-01  0.51109989000E-03 0. -1.
     -623    1    1    2    0    0  0.79696553587E-03  0.60936010204E-03  0.48808047265E-04  0.17130000000E+03  0.17130000000E+03 0. -1.
      622    1    1    2    0    0  0.38566575287E-03  0.39235655958E-03  0.39654599176E+01  0.39654701690E+01  0.90000000000E-02 0.  1.
</event>
<event>
 5   0  0.6135700E+09  0.9118800E+02  0.7818608E-02  0.1180000E+00
       11   -1    0    0    0    0  0.00000000000E+00  0.00000000000E+00  0.39999999673E+01  0.40000000000E+01  0.51109989000E-03 0. -1.
     -623   -1    0    0    0    0  0.00000000000E+00  0.00000000000E+00  0.12525980253E-10  0.17130000000E+03  0.17130000000E+03 0.  1.
       11    1    1    2    0    0  0.52437297216E-02 -0.35680648032E-02  0.12851364650E+00  0.12867107813E+00  0.51109989000E-03 0. -1.
     -623    1    1    2    0    0 -0.15360498827E-03 -0.19793031954E-04  0.17286959036E-03  0.17130000000E+03  0.17130000000E+03 0.  1.
      622    1    1    2    0    0 -0.50901247333E-02  0.35878578351E-02  0.38713134510E+01  0.38713289215E+01  0.90000000000E-02 0. -1.
</event>
<event>
 5   0  0.6135700E+09  0.9118800E+02  0.7818608E-02  0.1180000E+00
       11   -1    0    0    0    0  0.00000000000E+00  0.00000000000E+00  0.39999999673E+01  0.40000000000E+01  0.51109989000E-03 0. -1.
     -623   -1    0    0    0    0  0.00000000000E+00  0.00000000000E+00  0.12525980253E-10  0.17130000000E+03  0.17130000000E+03 0.  1.
       11    1    1    2    0    0  0.43604691578E-03  0.19006643033E-03  0.74474853282E-02  0.74801419086E-02  0.51109989000E-03 0. -1.
     -623    1    1    2    0    0  0.52833339024E-04  0.70049703581E-03  0.42898623834E-04  0.17130000000E+03  0.17130000000E+03 0.  1.
      622    1    1    2    0    0 -0.48888025490E-03 -0.89056346745E-03  0.39925095909E+01  0.39925198641E+01  0.90000000000E-02 0. -1.
</event>
<event>
 5   0  0.6135700E+09  0.9118800E+02  0.7818608E-02  0.1180000E+00
       11   -1    0    0    0    0  0.00000000000E+00  0.00000000000E+00  0.39999999673E+01  0.40000000000E+01  0.51109989000E-03 0. -1.
     -623   -1    0    0    0    0  0.00000000000E+00  0.00000000000E+00  0.12525980253E-10  0.17130000000E+03  0.17130000000E+03 0. -1.
       11    1    1    2    0    0 -0.22491359658E-02  0.42648690714E-03  0.12282703160E-01  0.12504660057E-01  0.51109989000E-03 0. -1.
     -623    1    1    2    0    0  0.17314593777E-02 -0.16068362337E-02  0.23230576904E-03  0.17130000002E+03  0.17130000000E+03 0. -1.
      622    1    1    2    0    0  0.51767658814E-03  0.11803493266E-02  0.39874849584E+01  0.39874953235E+01  0.90000000000E-02 0. -1.
</event>
<event>
 5   0  0.6135700E+09  0.9118800E+02  0.7818608E-02  0.1180000E+00
       11   -1    0    0    0    0  0.00000000000E+00  0.00000000000E+00  0.39999999673E+01  0.40000000000E+01  0.51109989000E-03 0.  1.
     -623   -1    0    0    0    0  0.00000000000E+00  0.00000000000E+00  0.12525980253E-10  0.17130000000E+03  0.17130000000E+03 0. -1.
       11    1    1    2    0    0  0.52902688862E-03  0.92558553167E-03  0.16156683305E+00  0.16157115876E+00  0.51109989000E-03 0.  1.
     -623    1    1    2    0    0 -0.61626919445E-03  0.30368864828E-04  0.14965419200E-04  0.17130000000E+03  0.17130000000E+03 0. -1.
      622    1    1    2    0    0  0.87242306158E-04 -0.95595439652E-03  0.38384181710E+01  0.38384288423E+01  0.90000000000E-02 0.  1.
</event>
<event>
 5   0  0.6135700E+09  0.9118800E+02  0.7818608E-02  0.1180000E+00
       11   -1    0    0    0    0  0.00000000000E+00  0.00000000000E+00  0.39999999673E+01  0.40000000000E+01  0.51109989000E-03 0.  1.
     -623   -1    0    0    0    0  0.00000000000E+00  0.00000000000E+00  0.12525980253E-10  0.17130000000E+03  0.17130000000E+03 0. -1.
       11    1    1    2    0    0  0.58246291209E-05  0.40456201102E-03  0.48014768261E+00  0.48014812511E+00  0.51109989000E-03 0.  1.
     -623    1    1    2    0    0 -0.18836410547E-04 -0.17102117800E-03  0.11923896952E-04  0.17130000000E+03  0.17130000000E+03 0. -1.
      622    1    1    2    0    0  0.13011781427E-04 -0.23354083301E-03  0.35198403609E+01  0.35198518748E+01  0.90000000000E-02 0.  1.
</event>
<event>
 5   0  0.6135700E+09  0.9118800E+02  0.7818608E-02  0.1180000E+00
       11   -1    0    0    0    0  0.00000000000E+00  0.00000000000E+00  0.39999999673E+01  0.40000000000E+01  0.51109989000E-03 0.  1.
     -623   -1    0    0    0    0  0.00000000000E+00  0.00000000000E+00  0.12525980253E-10  0.17130000000E+03  0.17130000000E+03 0.  1.
       11    1    1    2    0    0  0.25196290662E-03  0.78257096751E-03  0.51598680458E-01  0.51607760555E-01  0.51109989000E-03 0.  1.
     -623    1    1    2    0    0 -0.39963783490E-03 -0.11457931156E-02  0.19328577577E-04  0.17130000000E+03  0.17130000000E+03 0.  1.
      622    1    1    2    0    0  0.14767492828E-03  0.36322214804E-03  0.39483819583E+01  0.39483922351E+01  0.90000000000E-02 0.  1.
</event>
<event>
 5   0  0.6135700E+09  0.9118800E+02  0.7818608E-02  0.1180000E+00
       11   -1    0    0    0    0  0.00000000000E+00  0.00000000000E+00  0.39999999673E+01  0.40000000000E+01  0.51109989000E-03 0.  1.
     -623   -1    0    0    0    0  0.00000000000E+00  0.00000000000E+00  0.12525980253E-10  0.17130000000E+03  0.17130000000E+03 0.  1.
       11    1    1    2    0    0 -0.31684368427E-04  0.40622462706E-04  0.41931188829E+00  0.41931220294E+00  0.51109989000E-03 0.  1.
     -623    1    1    2    0    0 -0.27845655845E-03 -0.20685340403E-03  0.11610349151E-04  0.17130000000E+03  0.17130000000E+03 0.  1.
      622    1    1    2    0    0  0.31014092688E-03  0.16623094132E-03  0.35806764687E+01  0.35806877967E+01  0.90000000000E-02 0.  1.
</event>
<event>
 5   0  0.6135700E+09  0.9118800E+02  0.7818608E-02  0.1180000E+00
       11   -1    0    0    0    0  0.00000000000E+00  0.00000000000E+00  0.39999999673E+01  0.40000000000E+01  0.51109989000E-03 0.  1.
     -623   -1    0    0    0    0  0.00000000000E+00  0.00000000000E+00  0.12525980253E-10  0.17130000000E+03  0.17130000000E+03 0. -1.
       11    1    1    2    0    0  0.76817154303E-04 -0.13409241977E-02  0.27767934757E-01  0.27805096658E-01  0.51109989000E-03 0.  1.
     -623    1    1    2    0    0  0.23952427087E-03  0.91332355394E-04  0.47534495025E-04  0.17130000000E+03  0.17130000000E+03 0. -1.
      622    1    1    2    0    0 -0.31634142517E-03  0.12495918423E-02  0.39721844981E+01  0.39721949031E+01  0.90000000000E-02 0.  1.
</event>
<event>
 5   0  0.6135700E+09  0.9118800E+02  0.7818608E-02  0.1180000E+00
       11   -1    0    0    0    0  0.00000000000E+00  0.00000000000E+00  0.39999999673E+01  0.40000000000E+01  0.51109989000E-03 0. -1.
     -623   -1    0    0    0    0  0.00000000000E+00  0.00000000000E+00  0.12525980253E-10  0.17130000000E+03  0.17130000000E+03 0.  1.
       11    1    1    2    0    0  0.29059411943E-02  0.15219823432E-02  0.10143339282E+01  0.10143393614E+01  0.51109989000E-03 0. -1.
     -623    1    1    2    0    0 -0.27064298298E-04  0.27986678425E-04  0.20755701503E-04  0.17130000000E+03  0.17130000000E+03 0.  1.
      622    1    1    2    0    0 -0.28788768960E-02 -0.15499690216E-02  0.29856452834E+01  0.29856606386E+01  0.90000000000E-02 0. -1.
</event>
<event>
 5   0  0.6135700E+09  0.9118800E+02  0.7818608E-02  0.1180000E+00
       11   -1    0    0    0    0  0.00000000000E+00  0.00000000000E+00  0.39999999673E+01  0.40000000000E+01  0.51109989000E-03 0.  1.
     -623   -1    0    0    0    0  0.00000000000E+00  0.00000000000E+00  0.12525980253E-10  0.17130000000E+03  0.17130000000E+03 0.  1.
       11    1    1    2    0    0  0.14084172123E-02  0.59665621008E-03  0.39116670470E+00  0.39117002918E+00  0.51109989000E-03 0.  1.
     -623    1    1    2    0    0  0.53176094037E-03 -0.84857230861E-03  0.15047589639E-04  0.17130000000E+03  0.17130000000E+03 0.  1.
      622    1    1    2    0    0 -0.19401781531E-02  0.25191609923E-03  0.36088182184E+01  0.36088299712E+01  0.90000000000E-02 0.  1.
</event>
<event>
 5   0  0.6135700E+09  0.9118800E+02  0.7818608E-02  0.1180000E+00
       11   -1    0    0    0    0  0.00000000000E+00  0.00000000000E+00  0.39999999673E+01  0.40000000000E+01  0.51109989000E-03 0.  1.
     -623   -1    0    0    0    0  0.00000000000E+00  0.00000000000E+00  0.12525980253E-10  0.17130000000E+03  0.17130000000E+03 0. -1.
       11    1    1    2    0    0 -0.19419282384E-03 -0.31789134331E-02  0.56519666610E-01  0.56611634287E-01  0.51109989000E-03 0.  1.
     -623    1    1    2    0    0 -0.14003631971E-03  0.30771537806E-03  0.10326520234E-03  0.17130000000E+03  0.17130000000E+03 0. -1.
      622    1    1    2    0    0  0.33422914355E-03  0.28711980551E-02  0.39433770355E+01  0.39433883653E+01  0.90000000000E-02 0.  1.
</event>
<event>
 5   0  0.6135700E+09  0.9118800E+02  0.7818608E-02  0.1180000E+00
       11   -1    0    0    0    0  0.00000000000E+00  0.00000000000E+00  0.39999999673E+01  0.40000000000E+01  0.51109989000E-03 0.  1.
     -623   -1    0    0    0    0  0.00000000000E+00  0.00000000000E+00  0.12525980253E-10  0.17130000000E+03  0.17130000000E+03 0. -1.
       11    1    1    2    0    0  0.31135671071E-02 -0.35275034502E-02  0.33334626369E+00  0.33337985890E+00  0.51109989000E-03 0.  1.
     -623    1    1    2    0    0 -0.44411057991E-02 -0.12609619261E-02  0.48037511309E-04  0.17130000006E+03  0.17130000000E+03 0. -1.
      622    1    1    2    0    0  0.13275386838E-02  0.47884653740E-02  0.36666056588E+01  0.36666200715E+01  0.90000000000E-02 0.  1.
</event>
<event>
 5   0  0.6135700E+09  0.9118800E+02  0.7818608E-02  0.1180000E+00
       11   -1    0    0    0    0  0.00000000000E+00  0.00000000000E+00  0.39999999673E+01  0.40000000000E+01  0.51109989000E-03 0.  1.
     -623   -1    0    0    0    0  0.00000000000E+00  0.00000000000E+00  0.12525980253E-10  0.17130000000E+03  0.17130000000E+03 0.  1.
       11    1    1    2    0    0 -0.57391655922E-03 -0.19796863767E-02  0.31764947138E-01  0.31835854443E-01  0.51109989000E-03 0.  1.
     -623    1    1    2    0    0 -0.83299395636E-04  0.21835188401E-03  0.81526412717E-04  0.17130000000E+03  0.17130000000E+03 0.  1.
      622    1    1    2    0    0  0.65721595492E-03  0.17613344925E-02  0.39681534971E+01  0.39681641487E+01  0.90000000000E-02 0.  1.
</event>
<event>
 5   0  0.6135700E+09  0.9118800E+02  0.7818608E-02  0.1180000E+00
       11   -1    0    0    0    0  0.00000000000E+00  0.00000000000E+00  0.39999999673E+01  0.40000000000E+01  0.51109989000E-03 0.  1.
     -623   -1    0    0    0    0  0.00000000000E+00  0.00000000000E+00  0.12525980253E-10  0.17130000000E+03  0.17130000000E+03 0. -1.
       11    1    1    2    0    0 -0.13742885324E-03 -0.77276830992E-03  0.50606684797E-01  0.50615351690E-01  0.51109989000E-03 0.  1.
     -623    1    1    2    0    0 -0.10666744856E-03  0.65380275302E-03  0.18899646367E-04  0.17130000000E+03  0.17130000000E+03 0. -1.
      622    1    1    2    0    0  0.24409630132E-03  0.11896555984E-03  0.39493743650E+01  0.39493846291E+01  0.90000000000E-02 0.  1.
</event>
<event>
 5   0  0.6135700E+09  0.9118800E+02  0.7818608E-02  0.1180000E+00
       11   -1    0    0    0    0  0.00000000000E+00  0.00000000000E+00  0.39999999673E+01  0.40000000000E+01  0.51109989000E-03 0.  1.
     -623   -1    0    0    0    0  0.00000000000E+00  0.00000000000E+00  0.12525980253E-10  0.17130000000E+03  0.17130000000E+03 0. -1.
       11    1    1    2    0    0 -0.85052855771E-03 -0.26317448309E-03  0.10750279227E+00  0.10750769380E+00  0.51109989000E-03 0.  1.
     -623    1    1    2    0    0 -0.50984801482E-04  0.48797623457E-04  0.15383864077E-04  0.17130000000E+03  0.17130000000E+03 0. -1.
      622    1    1    2    0    0  0.90151335919E-03  0.21437685963E-03  0.38924817912E+01  0.38924923062E+01  0.90000000000E-02 0.  1.
</event>
<event>
 5   0  0.6135700E+09  0.9118800E+02  0.7818608E-02  0.1180000E+00
       11   -1    0    0    0    0  0.00000000000E+00  0.00000000000E+00  0.39999999673E+01  0.40000000000E+01  0.51109989000E-03 0.  1.
     -623   -1    0    0    0    0  0.00000000000E+00  0.00000000000E+00  0.12525980253E-10  0.17130000000E+03  0.17130000000E+03 0. -1.
       11    1    1    2    0    0 -0.45763082525E-02 -0.17394525135E-04  0.58880047855E+00  0.58881848447E+00  0.51109989000E-03 0.  1.
     -623    1    1    2    0    0  0.98044623202E-02 -0.17803170692E-03  0.34138790431E-04  0.17130000028E+03  0.17130000000E+03 0. -1.
      622    1    1    2    0    0 -0.52281540677E-02  0.19542623206E-03  0.34111653500E+01  0.34111812348E+01  0.90000000000E-02 0.  1.
</event>
<event>
 5   0  0.6135700E+09  0.9118800E+02  0.7818608E-02  0.1180000E+00
       11   -1    0    0    0    0  0.00000000000E+00  0.00000000000E+00  0.39999999673E+01  0.40000000000E+01  0.51109989000E-03 0. -1.
     -623   -1    0    0    0    0  0.00000000000E+00  0.00000000000E+00  0.12525980253E-10  0.17130000000E+03  0.17130000000E+03 0.  1.
       11    1    1    2    0    0  0.16004224707E-02  0.17948058522E-02  0.58211543815E+00  0.58212062945E+00  0.51109989000E-03 0. -1.
     -623    1    1    2    0    0  0.75994230859E-04 -0.13794446159E-03  0.17820931382E-04  0.17130000000E+03  0.17130000000E+03 0.  1.
      622    1    1    2    0    0 -0.16764167016E-02 -0.16568613906E-02  0.34178667083E+01  0.34178793705E+01  0.90000000000E-02 0. -1.
</event>
<event>
 5   0  0.6135700E+09  0.9118800E+02  0.7818608E-02  0.1180000E+00
       11   -1    0    0    0    0  0.00000000000E+00  0.00000000000E+00  0.39999999673E+01  0.40000000000E+01  0.51109989000E-03 0.  1.
     -623   -1    0    0    0    0  0.00000000000E+00  0.00000000000E+00  0.12525980253E-10  0.17130000000E+03  0.17130000000E+03 0.  1.
       11    1    1    2    0    0  0.24908918588E-02  0.17534517488E-02  0.25889976002E+00  0.25891818417E+00  0.51109989000E-03 0.  1.
     -623    1    1    2    0    0  0.42597068844E-04 -0.73689041260E-04  0.30452261384E-04  0.17130000000E+03  0.17130000000E+03 0.  1.
      622    1    1    2    0    0 -0.25334889276E-02 -0.16797627076E-02  0.37410697551E+01  0.37410818158E+01  0.90000000000E-02 0.  1.
</event>
<event>
 5   0  0.6135700E+09  0.9118800E+02  0.7818608E-02  0.1180000E+00
       11   -1    0    0    0    0  0.00000000000E+00  0.00000000000E+00  0.39999999673E+01  0.40000000000E+01  0.51109989000E-03 0. -1.
     -623   -1    0    0    0    0  0.00000000000E+00  0.00000000000E+00  0.12525980253E-10  0.17130000000E+03  0.17130000000E+03 0. -1.
       11    1    1    2    0    0 -0.12059762601E-02  0.50106342798E-02  0.29101115840E+00  0.29105723899E+00  0.51109989000E-03 0. -1.
     -623    1    1    2    0    0  0.31014309549E-04  0.34336842054E-04  0.60584793076E-04  0.17130000000E+03  0.17130000000E+03 0. -1.
      622    1    1    2    0    0  0.11749619506E-02 -0.50449711219E-02  0.37089282258E+01  0.37089427627E+01  0.90000000000E-02 0. -1.
</event>
<event>
 5   0  0.6135700E+09  0.9118800E+02  0.7818608E-02  0.1180000E+00
       11   -1    0    0    0    0  0.00000000000E+00  0.00000000000E+00  0.39999999673E+01  0.40000000000E+01  0.51109989000E-03 0.  1.
     -623   -1    0    0    0    0  0.00000000000E+00  0.00000000000E+00  0.12525980253E-10  0.17130000000E+03  0.17130000000E+03 0. -1.
       11    1    1    2    0    0 -0.16946921769E-02  0.18066421493E-03  0.30260029450E-01  0.30312294973E-01  0.51109989000E-03 0.  1.
     -623    1    1    2    0    0  0.17406834247E-03 -0.37708085070E-03  0.62731829328E-04  0.17130000000E+03  0.17130000000E+03 0. -1.
      622    1    1    2    0    0  0.15206238345E-02  0.19641663560E-03  0.39696772044E+01  0.39696877028E+01  0.90000000000E-02 0.  1.
</event>
<event>
 5   0  0.6135700E+09  0.9118800E+02  0.7818608E-02  0.1180000E+00
       11   -1    0    0    0    0  0.00000000000E+00  0.00000000000E+00  0.39999999673E+01  0.40000000000E+01  0.51109989000E-03 0.  1.
     -623   -1    0    0    0    0  0.00000000000E+00  0.00000000000E+00  0.12525980253E-10  0.17130000000E+03  0.17130000000E+03 0. -1.
       11    1    1    2    0    0 -0.20600838928E-02 -0.49294835490E-02  0.73667828258E+00  0.73669783290E+00  0.51109989000E-03 0.  1.
     -623    1    1    2    0    0 -0.13276617301E-02  0.72202161803E-02  0.34648248303E-04  0.17130000016E+03  0.17130000000E+03 0. -1.
      622    1    1    2    0    0  0.33877456279E-02 -0.22907326583E-02  0.32632870515E+01  0.32633020248E+01  0.90000000000E-02 0.  1.
</event>
<event>
 5   0  0.6135700E+09  0.9118800E+02  0.7818608E-02  0.1180000E+00
       11   -1    0    0    0    0  0.00000000000E+00  0.00000000000E+00  0.39999999673E+01  0.40000000000E+01  0.51109989000E-03 0. -1.
     -623   -1    0    0    0    0  0.00000000000E+00  0.00000000000E+00  0.12525980253E-10  0.17130000000E+03  0.17130000000E+03 0.  1.
       11    1    1    2    0    0 -0.24129773184E-01  0.70178078203E-02  0.56059511854E+00  0.56115830541E+00  0.51109989000E-03 0. -1.
     -623    1    1    2    0    0 -0.25021877048E-02 -0.17563460021E-02  0.68211222871E-03  0.17130000003E+03  0.17130000000E+03 0.  1.
      622    1    1    2    0    0  0.26631960889E-01 -0.52614618182E-02  0.34387227366E+01  0.34388416659E+01  0.90000000000E-02 0. -1.
</event>
<event>
 5   0  0.6135700E+09  0.9118800E+02  0.7818608E-02  0.1180000E+00
       11   -1    0    0    0    0  0.00000000000E+00  0.00000000000E+00  0.39999999673E+01  0.40000000000E+01  0.51109989000E-03 0. -1.
     -623   -1    0    0    0    0  0.00000000000E+00  0.00000000000E+00  0.12525980253E-10  0.17130000000E+03  0.17130000000E+03 0.  1.
       11    1    1    2    0    0 -0.77704897508E-02  0.32367947658E-02  0.40119159953E+00  0.40128022392E+00  0.51109989000E-03 0. -1.
     -623    1    1    2    0    0  0.49359067820E-02 -0.18076489219E-02  0.10132657724E-03  0.17130000008E+03  0.17130000000E+03 0.  1.
      622    1    1    2    0    0  0.28345829688E-02 -0.14291458439E-02  0.35987070413E+01  0.35987196954E+01  0.90000000000E-02 0. -1.
</event>
<event>
 5   0  0.6135700E+09  0.9118800E+02  0.7818608E-02  0.1180000E+00
       11   -1    0    0    0    0  0.00000000000E+00  0.00000000000E+00  0.39999999673E+01  0.40000000000E+01  0.51109989000E-03 0. -1.
     -623   -1    0    0    0    0  0.00000000000E+00  0.00000000000E+00  0.12525980253E-10  0.17130000000E+03  0.17130000000E+03 0. -1.
       11    1    1    2    0    0 -0.49786911064E-02 -0.45101686325E-02  0.23307575572E+00  0.23317310762E+00  0.51109989000E-03 0. -1.
     -623    1    1    2    0    0 -0.10011539062E-02 -0.12214183712E-03  0.11566889409E-03  0.17130000000E+03  0.17130000000E+03 0. -1.
      622    1    1    2    0    0  0.59798450126E-02  0.46323104696E-02  0.37668085427E+01  0.37668268893E+01  0.90000000000E-02 0. -1.
</event>
<event>
 5   0  0.6135700E+09  0.9118800E+02  0.7818608E-02  0.1180000E+00
       11   -1    0    0    0    0  0.00000000000E+00  0.00000000000E+00  0.39999999673E+01  0.40000000000E+01  0.51109989000E-03 0.  1.
     -623   -1    0    0    0    0  0.00000000000E+00  0.00000000000E+00  0.12525980253E-10  0.17130000000E+03  0.17130000000E+03 0. -1.
       11    1    1    2    0    0 -0.18061446954E-02  0.43327551438E-02  0.18106785860E+00  0.18112941662E+00  0.51109989000E-03 0.  1.
     -623    1    1    2    0    0 -0.11689481052E-02 -0.62923266057E-02  0.73911831422E-04  0.17130000012E+03  0.17130000000E+03 0. -1.
      622    1    1    2    0    0  0.29750928007E-02  0.19595714619E-02  0.38188581969E+01  0.38188704638E+01  0.90000000000E-02 0.  1.
</event>
<event>
 5   0  0.6135700E+09  0.9118800E+02  0.7818608E-02  0.1180000E+00
       11   -1    0    0    0    0  0.00000000000E+00  0.00000000000E+00  0.39999999673E+01  0.40000000000E+01  0.51109989000E-03 0. -1.
     -623   -1    0    0    0    0  0.00000000000E+00  0.00000000000E+00  0.12525980253E-10  0.17130000000E+03  0.17130000000E+03 0. -1.
       11    1    1    2    0    0  0.20696660295E-03  0.18043019039E-03  0.76457700502E+00  0.76457722515E+00  0.51109989000E-03 0. -1.
     -623    1    1    2    0    0  0.24532905988E-03 -0.81095633966E-04  0.12738533087E-04  0.17130000000E+03  0.17130000000E+03 0. -1.
      622    1    1    2    0    0 -0.45229566390E-03 -0.99334556068E-04  0.32354102412E+01  0.32354227920E+01  0.90000000000E-02 0.  1.
</event>
<event>
 5   0  0.6135700E+09  0.9118800E+02  0.7818608E-02  0.1180000E+00
       11   -1    0    0    0    0  0.00000000000E+00  0.00000000000E+00  0.39999999673E+01  0.40000000000E+01  0.51109989000E-03 0.  1.
     -623   -1    0    0    0    0  0.00000000000E+00  0.00000000000E+00  0.12525980253E-10  0.17130000000E+03  0.17130000000E+03 0. -1.
       11    1    1    2    0    0 -0.75895391347E-03  0.28378982722E-02  0.10039895761E-01  0.10473318802E-01  0.51109989000E-03 0.  1.
     -623    1    1    2    0    0  0.10649222165E-02 -0.37409568432E-02  0.44370066733E-03  0.17130000004E+03  0.17130000000E+03 0. -1.
      622    1    1    2    0    0 -0.30596830307E-03  0.90305857108E-03  0.39895163709E+01  0.39895266365E+01  0.90000000000E-02 0.  1.
</event>
<event>
 5   0  0.6135700E+09  0.9118800E+02  0.7818608E-02  0.1180000E+00
       11   -1    0    0    0    0  0.00000000000E+00  0.00000000000E+00  0.39999999673E+01  0.40000000000E+01  0.51109989000E-03 0. -1.
     -623   -1    0    0    0    0  0.00000000000E+00  0.00000000000E+00  0.12525980253E-10  0.17130000000E+03  0.17130000000E+03 0. -1.
       11    1    1    2    0    0 -0.10885022465E-02  0.79231438753E-04  0.95431490899E-01  0.95439099917E-01  0.51109989000E-03 0. -1.
     -623    1    1    2    0    0  0.10153335829E-03 -0.92655071088E-04  0.18073696485E-04  0.17130000000E+03  0.17130000000E+03 0. -1.
      622    1    1    2    0    0  0.98696888800E-03  0.13423632552E-04  0.39045504121E+01  0.39045609094E+01  0.90000000000E-02 0. -1.
</event>
<event>
 5   0  0.6135700E+09  0.9118800E+02  0.7818608E-02  0.1180000E+00
       11   -1    0    0    0    0  0.00000000000E+00  0.00000000000E+00  0.39999999673E+01  0.40000000000E+01  0.51109989000E-03 0. -1.
     -623   -1    0    0    0    0  0.00000000000E+00  0.00000000000E+00  0.12525980253E-10  0.17130000000E+03  0.17130000000E+03 0.  1.
       11    1    1    2    0    0 -0.40227658430E-02 -0.64646489948E-02  0.15908000309E+00  0.15926293648E+00  0.51109989000E-03 0. -1.
     -623    1    1    2    0    0  0.26549861215E-02  0.25116460761E-02  0.19576254804E-03  0.17130000004E+03  0.17130000000E+03 0.  1.
      622    1    1    2    0    0  0.13677797216E-02  0.39530029187E-02  0.38407242017E+01  0.38407370244E+01  0.90000000000E-02 0. -1.
</event>
<event>
 5   0  0.6135700E+09  0.9118800E+02  0.7818608E-02  0.1180000E+00
       11   -1    0    0    0    0  0.00000000000E+00  0.00000000000E+00  0.39999999673E+01  0.40000000000E+01  0.51109989000E-03 0. -1.
     -623   -1    0    0    0    0  0.00000000000E+00  0.00000000000E+00  0.12525980253E-10  0.17130000000E+03  0.17130000000E+03 0.  1.
       11    1    1    2    0    0  0.45698646340E-03  0.50883426556E-03  0.42516501436E+00  0.42516587164E+00  0.51109989000E-03 0. -1.
     -623    1    1    2    0    0  0.11091873281E-02  0.21908872674E-02  0.13533958153E-04  0.17130000002E+03  0.17130000000E+03 0.  1.
      622    1    1    2    0    0 -0.15661737971E-02 -0.26997215441E-02  0.35748214393E+01  0.35748341310E+01  0.90000000000E-02 0.  0.
</event>
<event>
 5   0  0.6135700E+09  0.9118800E+02  0.7818608E-02  0.1180000E+00
       11   -1    0    0    0    0  0.00000000000E+00  0.00000000000E+00  0.39999999673E+01  0.40000000000E+01  0.51109989000E-03 0. -1.
     -623   -1    0    0    0    0  0.00000000000E+00  0.00000000000E+00  0.12525980253E-10  0.17130000000E+03  0.17130000000E+03 0. -1.
       11    1    1    2    0    0  0.16653259936E-02  0.45841960172E-03  0.29492369716E-01  0.29547327319E-01  0.51109989000E-03 0. -1.
     -623    1    1    2    0    0 -0.66603789785E-03  0.10292619394E-02  0.65534184702E-04  0.17130000000E+03  0.17130000000E+03 0. -1.
      622    1    1    2    0    0 -0.99928809579E-03 -0.14876815411E-02  0.39704420635E+01  0.39704526683E+01  0.90000000000E-02 0. -1.
</event>
<event>
 5   0  0.6135700E+09  0.9118800E+02  0.7818608E-02  0.1180000E+00
       11   -1    0    0    0    0  0.00000000000E+00  0.00000000000E+00  0.39999999673E+01  0.40000000000E+01  0.51109989000E-03 0.  1.
     -623   -1    0    0    0    0  0.00000000000E+00  0.00000000000E+00  0.12525980253E-10  0.17130000000E+03  0.17130000000E+03 0.  1.
       11    1    1    2    0    0  0.18478878472E-03 -0.10226645759E-02  0.18001238630E-01  0.18038453434E-01  0.51109989000E-03 0.  1.
     -623    1    1    2    0    0 -0.13018744218E-04 -0.19996604058E-03  0.47544572518E-04  0.17130000000E+03  0.17130000000E+03 0.  1.
      622    1    1    2    0    0 -0.17177004050E-03  0.12226306165E-02  0.39819511842E+01  0.39819615464E+01  0.90000000000E-02 0.  1.
</event>
<event>
 5   0  0.6135700E+09  0.9118800E+02  0.7818608E-02  0.1180000E+00
       11   -1    0    0    0    0  0.00000000000E+00  0.00000000000E+00  0.39999999673E+01  0.40000000000E+01  0.51109989000E-03 0.  1.
     -623   -1    0    0    0    0  0.00000000000E+00  0.00000000000E+00  0.12525980253E-10  0.17130000000E+03  0.17130000000E+03 0.  1.
       11    1    1    2    0    0 -0.16568560068E-02  0.17194099206E-02  0.67352147836E-01  0.67396398891E-01  0.51109989000E-03 0.  1.
     -623    1    1    2    0    0 -0.12111174795E-02 -0.10069898332E-02  0.55634512241E-04  0.17130000001E+03  0.17130000000E+03 0.  1.
      622    1    1    2    0    0  0.28679734883E-02 -0.71242008578E-03  0.39325921915E+01  0.39326036003E+01  0.90000000000E-02 0.  1.
</event>
<event>
 5   0  0.6135700E+09  0.9118800E+02  0.7818608E-02  0.1180000E+00
       11   -1    0    0    0    0  0.00000000000E+00  0.00000000000E+00  0.39999999673E+01  0.40000000000E+01  0.51109989000E-03 0. -1.
     -623   -1    0    0    0    0  0.00000000000E+00  0.00000000000E+00  0.12525980253E-10  0.17130000000E+03  0.17130000000E+03 0. -1.
       11    1    1    2    0    0  0.42670303078E-02 -0.25861775655E-02  0.36243455194E+00  0.36246925598E+00  0.51109989000E-03 0. -1.
     -623    1    1    2    0    0 -0.25785625871E-03  0.21504545900E-03  0.48787889632E-04  0.17130000000E+03  0.17130000000E+03 0. -1.
      622    1    1    2    0    0 -0.40091740487E-02  0.23711321062E-02  0.36375166327E+01  0.36375307489E+01  0.90000000000E-02 0. -1.
</event>
<event>
 5   0  0.6135700E+09  0.9118800E+02  0.7818608E-02  0.1180000E+00
       11   -1    0    0    0    0  0.00000000000E+00  0.00000000000E+00  0.39999999673E+01  0.40000000000E+01  0.51109989000E-03 0.  1.
     -623   -1    0    0    0    0  0.00000000000E+00  0.00000000000E+00  0.12525980253E-10  0.17130000000E+03  0.17130000000E+03 0. -1.
       11    1    1    2    0    0 -0.40233703972E-04 -0.13151372807E-02  0.25891102533E-01  0.25929551063E-01  0.51109989000E-03 0.  1.
     -623    1    1    2    0    0  0.80198424532E-03 -0.19459854706E-02  0.50030951537E-04  0.17130000001E+03  0.17130000000E+03 0. -1.
      622    1    1    2    0    0 -0.76175054223E-03  0.32611227534E-02  0.39740588383E+01  0.39740704404E+01  0.90000000000E-02 0.  1.
</event>
<event>
 5   0  0.6135700E+09  0.9118800E+02  0.7818608E-02  0.1180000E+00
       11   -1    0    0    0    0  0.00000000000E+00  0.00000000000E+00  0.39999999673E+01  0.40000000000E+01  0.51109989000E-03 0.  1.
     -623   -1    0    0    0    0  0.00000000000E+00  0.00000000000E+00  0.12525980253E-10  0.17130000000E+03  0.17130000000E+03 0.  1.
       11    1    1    2    0    0 -0.14197932223E-02  0.52049322364E-04  0.12380405258E+00  0.12381325930E+00  0.51109989000E-03 0.  1.
     -623    1    1    2    0    0  0.29809222920E-03 -0.17040776351E-02  0.20145599169E-04  0.17130000001E+03  0.17130000000E+03 0.  1.
      622    1    1    2    0    0  0.11217009927E-02  0.16520283147E-02  0.38761757737E+01  0.38761867365E+01  0.90000000000E-02 0.  1.
</event>
<event>
 5   0  0.6135700E+09  0.9118800E+02  0.7818608E-02  0.1180000E+00
       11   -1    0    0    0    0  0.00000000000E+00  0.00000000000E+00  0.39999999673E+01  0.40000000000E+01  0.51109989000E-03 0.  1.
     -623   -1    0    0    0    0  0.00000000000E+00  0.00000000000E+00  0.12525980253E-10  0.17130000000E+03  0.17130000000E+03 0. -1.
       11    1    1    2    0    0 -0.78854034703E-03  0.77646729002E-03  0.12875910933E-01  0.12933483784E-01  0.51109989000E-03 0.  1.
     -623    1    1    2    0    0  0.10255378306E-03  0.35062799058E-04  0.67839718356E-04  0.17130000000E+03  0.17130000000E+03 0. -1.
      622    1    1    2    0    0  0.68598656393E-03 -0.81153008909E-03  0.39870562181E+01  0.39870665176E+01  0.90000000000E-02 0.  1.
</event>
<event>
 5   0  0.6135700E+09  0.9118800E+02  0.7818608E-02  0.1180000E+00
       11   -1    0    0    0    0  0.00000000000E+00  0.00000000000E+00  0.39999999673E+01  0.40000000000E+01  0.51109989000E-03 0.  1.
     -623   -1    0    0    0    0  0.00000000000E+00  0.00000000000E+00  0.12525980253E-10  0.17130000000E+03  0.17130000000E+03 0. -1.
       11    1    1    2    0    0  0.71612545040E-03 -0.21169711321E-04  0.14876112313E+00  0.14876372630E+00  0.51109989000E-03 0.  1.
     -623    1    1    2    0    0  0.40489205194E-04  0.19517063109E-04  0.13160974301E-04  0.17130000000E+03  0.17130000000E+03 0. -1.
      622    1    1    2    0    0 -0.75661465573E-03  0.16526481449E-05  0.38512256972E+01  0.38512362876E+01  0.90000000000E-02 0.  1.
</event>
<event>
 5   0  0.6135700E+09  0.9118800E+02  0.7818608E-02  0.1180000E+00
       11   -1    0    0    0    0  0.00000000000E+00  0.00000000000E+00  0.39999999673E+01  0.40000000000E+01  0.51109989000E-03 0.  1.
     -623   -1    0    0    0    0  0.00000000000E+00  0.00000000000E+00  0.12525980253E-10  0.17130000000E+03  0.17130000000E+03 0. -1.
       11    1    1    2    0    0  0.54544546991E-02  0.12099791853E-02  0.10472700272E+01  0.10472850549E+01  0.51109989000E-03 0.  1.
     -623    1    1    2    0    0 -0.23119013159E-03  0.44601718628E-03  0.33796324408E-04  0.17130000000E+03  0.17130000000E+03 0. -1.
      622    1    1    2    0    0 -0.52232645674E-02 -0.16559963719E-02  0.29526961466E+01  0.29527149472E+01  0.90000000000E-02 0.  1.
</event>
<event>
 5   0  0.6135700E+09  0.9118800E+02  0.7818608E-02  0.1180000E+00
       11   -1    0    0    0    0  0.00000000000E+00  0.00000000000E+00  0.39999999673E+01  0.40000000000E+01  0.51109989000E-03 0. -1.
     -623   -1    0    0    0    0  0.00000000000E+00  0.00000000000E+00  0.12525980253E-10  0.17130000000E+03  0.17130000000E+03 0. -1.
       11    1    1    2    0    0  0.11625770054E-02  0.31073283047E-02  0.47487848808E+00  0.47489035234E+00  0.51109989000E-03 0. -1.
     -623    1    1    2    0    0 -0.38658757193E-04  0.21655015154E-04  0.24888504838E-04  0.17130000000E+03  0.17130000000E+03 0. -1.
      622    1    1    2    0    0 -0.11239182483E-02 -0.31289833198E-02  0.35250965788E+01  0.35251096357E+01  0.90000000000E-02 0. -1.
</event>
<event>
 5   0  0.6135700E+09  0.9118800E+02  0.7818608E-02  0.1180000E+00
       11   -1    0    0    0    0  0.00000000000E+00  0.00000000000E+00  0.39999999673E+01  0.40000000000E+01  0.51109989000E-03 0.  1.
     -623   -1    0    0    0    0  0.00000000000E+00  0.00000000000E+00  0.12525980253E-10  0.17130000000E+03  0.17130000000E+03 0.  1.
       11    1    1    2    0    0 -0.49836178405E-03  0.18439672195E-02  0.11601860303E+00  0.11603545170E+00  0.51109989000E-03 0.  1.
     -623    1    1    2    0    0  0.11379353185E-03 -0.26283721598E-04  0.27687947892E-04  0.17130000000E+03  0.17130000000E+03 0.  1.
      622    1    1    2    0    0  0.38456825220E-03 -0.18176834979E-02  0.38839536764E+01  0.38839645483E+01  0.90000000000E-02 0.  1.
</event>
<event>
 5   0  0.6135700E+09  0.9118800E+02  0.7818608E-02  0.1180000E+00
       11   -1    0    0    0    0  0.00000000000E+00  0.00000000000E+00  0.39999999673E+01  0.40000000000E+01  0.51109989000E-03 0.  1.
     -623   -1    0    0    0    0  0.00000000000E+00  0.00000000000E+00  0.12525980253E-10  0.17130000000E+03  0.17130000000E+03 0.  1.
       11    1    1    2    0    0  0.24685086199E-03  0.11678882130E-03  0.20870681619E-01  0.20878724801E-01  0.51109989000E-03 0.  1.
     -623    1    1    2    0    0  0.91858752535E-05 -0.19861888326E-03  0.18197876461E-04  0.17130000000E+03  0.17130000000E+03 0.  1.
      622    1    1    2    0    0 -0.25603673729E-03  0.81830063103E-04  0.39791111110E+01  0.39791212982E+01  0.90000000000E-02 0.  1.
</event>
<event>
 5   0  0.6135700E+09  0.9118800E+02  0.7818608E-02  0.1180000E+00
       11   -1    0    0    0    0  0.00000000000E+00  0.00000000000E+00  0.39999999673E+01  0.40000000000E+01  0.51109989000E-03 0. -1.
     -623   -1    0    0    0    0  0.00000000000E+00  0.00000000000E+00  0.12525980253E-10  0.17130000000E+03  0.17130000000E+03 0. -1.
       11    1    1    2    0    0  0.37829722413E-02  0.21960544127E-02  0.62523263809E+00  0.62524814793E+00  0.51109989000E-03 0. -1.
     -623    1    1    2    0    0 -0.97073672199E-04 -0.18295872627E-03  0.30091530673E-04  0.17130000000E+03  0.17130000000E+03 0. -1.
      622    1    1    2    0    0 -0.36858985691E-02 -0.20130956864E-02  0.33747372379E+01  0.33747518521E+01  0.90000000000E-02 0. -1.
</event>
<event>
 5   0  0.6135700E+09  0.9118800E+02  0.7818608E-02  0.1180000E+00
       11   -1    0    0    0    0  0.00000000000E+00  0.00000000000E+00  0.39999999673E+01  0.40000000000E+01  0.51109989000E-03 0.  1.
     -623   -1    0    0    0    0  0.00000000000E+00  0.00000000000E+00  0.12525980253E-10  0.17130000000E+03  0.17130000000E+03 0.  1.
       11    1    1    2    0    0  0.94223271155E-03 -0.54705811324E-03  0.19154079091E+00  0.19154457152E+00  0.51109989000E-03 0.  1.
     -623    1    1    2    0    0 -0.35097355543E-04 -0.34628927231E-04  0.14534687149E-04  0.17130000000E+03  0.17130000000E+03 0.  1.
      622    1    1    2    0    0 -0.90713535573E-03  0.58168704074E-03  0.38084446735E+01  0.38084554602E+01  0.90000000000E-02 0.  1.
</event>
<event>
 5   0  0.6135700E+09  0.9118800E+02  0.7818608E-02  0.1180000E+00
       11   -1    0    0    0    0  0.00000000000E+00  0.00000000000E+00  0.39999999673E+01  0.40000000000E+01  0.51109989000E-03 0.  1.
     -623   -1    0    0    0    0  0.00000000000E+00  0.00000000000E+00  0.12525980253E-10  0.17130000000E+03  0.17130000000E+03 0. -1.
       11    1    1    2    0    0 -0.40393858270E-03 -0.86387381824E-04  0.28322044449E-01  0.28329667344E-01  0.51109989000E-03 0. -1.
     -623    1    1    2    0    0 -0.58835885001E-03  0.17946644064E-03  0.17913644399E-04  0.17130000000E+03  0.17130000000E+03 0. -1.
      622    1    1    2    0    0  0.99229743271E-03 -0.93079058816E-04  0.39716600093E+01  0.39716703316E+01  0.90000000000E-02 0.  1.
</event>
<event>
 5   0  0.6135700E+09  0.9118800E+02  0.7818608E-02  0.1180000E+00
       11   -1    0    0    0    0  0.00000000000E+00  0.00000000000E+00  0.39999999673E+01  0.40000000000E+01  0.51109989000E-03 0. -1.
     -623   -1    0    0    0    0  0.00000000000E+00  0.00000000000E+00  0.12525980253E-10  0.17130000000E+03  0.17130000000E+03 0.  1.
       11    1    1    2    0    0  0.24505777245E-01 -0.16361676627E-01  0.25037134179E+00  0.25209979689E+00  0.51109989000E-03 0. -1.
     -623    1    1    2    0    0 -0.35569772722E-01  0.24713818062E-01  0.17703506684E-02  0.17130000548E+03  0.17130000000E+03 0.  1.
      622    1    1    2    0    0  0.11063995477E-01 -0.83521414353E-02  0.37478582749E+01  0.37478947183E+01  0.90000000000E-02 0. -1.
</event>
<event>
 5   0  0.6135700E+09  0.9118800E+02  0.7818608E-02  0.1180000E+00
       11   -1    0    0    0    0  0.00000000000E+00  0.00000000000E+00  0.39999999673E+01  0.40000000000E+01  0.51109989000E-03 0.  1.
     -623   -1    0    0    0    0  0.00000000000E+00  0.00000000000E+00  0.12525980253E-10  0.17130000000E+03  0.17130000000E+03 0. -1.
       11    1    1    2    0    0  0.15768785849E-02 -0.37244963781E-02  0.27297663675E+00  0.27300707656E+00  0.51109989000E-03 0.  1.
     -623    1    1    2    0    0 -0.30905679801E-04 -0.62560776980E-04  0.43518568548E-04  0.17130000000E+03  0.17130000000E+03 0. -1.
      622    1    1    2    0    0 -0.15459729051E-02  0.37870571550E-02  0.37269798082E+01  0.37269929196E+01  0.90000000000E-02 0.  0.
</event>
<event>
 5   0  0.6135700E+09  0.9118800E+02  0.7818608E-02  0.1180000E+00
       11   -1    0    0    0    0  0.00000000000E+00  0.00000000000E+00  0.39999999673E+01  0.40000000000E+01  0.51109989000E-03 0. -1.
     -623   -1    0    0    0    0  0.00000000000E+00  0.00000000000E+00  0.12525980253E-10  0.17130000000E+03  0.17130000000E+03 0. -1.
       11    1    1    2    0    0 -0.17132687110E-02 -0.19622897920E-03  0.95203484879E-01  0.95220473378E-01  0.51109989000E-03 0. -1.
     -623    1    1    2    0    0 -0.19026152744E-04 -0.20251007327E-03  0.27732512778E-04  0.17130000000E+03  0.17130000000E+03 0. -1.
      622    1    1    2    0    0  0.17322948638E-02  0.39873905247E-03  0.39047687500E+01  0.39047795265E+01  0.90000000000E-02 0. -1.
</event>
<event>
 5   0  0.6135700E+09  0.9118800E+02  0.7818608E-02  0.1180000E+00
       11   -1    0    0    0    0  0.00000000000E+00  0.00000000000E+00  0.39999999673E+01  0.40000000000E+01  0.51109989000E-03 0. -1.
     -623   -1    0    0    0    0  0.00000000000E+00  0.00000000000E+00  0.12525980253E-10  0.17130000000E+03  0.17130000000E+03 0. -1.
       11    1    1    2    0    0 -0.46060565583E-03  0.59555182389E-03  0.49163725516E-01  0.49172146253E-01  0.51109989000E-03 0. -1.
     -623    1    1    2    0    0  0.10529442851E-03  0.53550377578E-04  0.18708467546E-04  0.17130000000E+03  0.17130000000E+03 0. -1.
      622    1    1    2    0    0  0.35531122733E-03 -0.64910220147E-03  0.39508175334E+01  0.39508278537E+01  0.90000000000E-02 0. -1.
</event>
<event>
 5   0  0.6135700E+09  0.9118800E+02  0.7818608E-02  0.1180000E+00
       11   -1    0    0    0    0  0.00000000000E+00  0.00000000000E+00  0.39999999673E+01  0.40000000000E+01  0.51109989000E-03 0. -1.
     -623   -1    0    0    0    0  0.00000000000E+00  0.00000000000E+00  0.12525980253E-10  0.17130000000E+03  0.17130000000E+03 0. -1.
       11    1    1    2    0    0  0.35455886524E-03 -0.38387246883E-03  0.18819697758E-02  0.20189362040E-02  0.51109989000E-03 0. -1.
     -623    1    1    2    0    0 -0.25425001050E-03  0.41733436315E-03  0.14706607242E-03  0.17130000000E+03  0.17130000000E+03 0. -1.
      622    1    1    2    0    0 -0.10030885457E-03 -0.33461894605E-04  0.39979709343E+01  0.39979810658E+01  0.90000000000E-02 0. -1.
</event>
<event>
 5   0  0.6135700E+09  0.9118800E+02  0.7818608E-02  0.1180000E+00
       11   -1    0    0    0    0  0.00000000000E+00  0.00000000000E+00  0.39999999673E+01  0.40000000000E+01  0.51109989000E-03 0.  1.
     -623   -1    0    0    0    0  0.00000000000E+00  0.00000000000E+00  0.12525980253E-10  0.17130000000E+03  0.17130000000E+03 0.  1.
       11    1    1    2    0    0 -0.37810881966E-02 -0.25713009467E-02  0.15345841059E+00  0.15352736960E+00  0.51109989000E-03 0.  1.
     -623    1    1    2    0    0  0.45637240600E-02  0.30635661359E-02  0.79654843747E-04  0.17130000009E+03  0.17130000000E+03 0.  1.
      622    1    1    2    0    0 -0.78263586339E-03 -0.49226518925E-03  0.38464619019E+01  0.38464725422E+01  0.90000000000E-02 0.  1.
</event>
<event>
 5   0  0.6135700E+09  0.9118800E+02  0.7818608E-02  0.1180000E+00
       11   -1    0    0    0    0  0.00000000000E+00  0.00000000000E+00  0.39999999673E+01  0.40000000000E+01  0.51109989000E-03 0. -1.
     -623   -1    0    0    0    0  0.00000000000E+00  0.00000000000E+00  0.12525980253E-10  0.17130000000E+03  0.17130000000E+03 0. -1.
       11    1    1    2    0    0 -0.27290995751E-03 -0.89132979924E-03  0.28188842376E-01  0.28208881690E-01  0.51109989000E-03 0. -1.
     -623    1    1    2    0    0  0.21341039139E-03 -0.13871812343E-02  0.30863359282E-04  0.17130000001E+03  0.17130000000E+03 0. -1.
      622    1    1    2    0    0  0.59499566659E-04  0.22785110300E-02  0.39717802514E+01  0.39717911023E+01  0.90000000000E-02 0. -1.
</event>
<event>
 5   0  0.6135700E+09  0.9118800E+02  0.7818608E-02  0.1180000E+00
       11   -1    0    0    0    0  0.00000000000E+00  0.00000000000E+00  0.39999999673E+01  0.40000000000E+01  0.51109989000E-03 0. -1.
     -623   -1    0    0    0    0  0.00000000000E+00  0.00000000000E+00  0.12525980253E-10  0.17130000000E+03  0.17130000000E+03 0. -1.
       11    1    1    2    0    0  0.27637948793E-02  0.12571543990E-01  0.10636182174E+01  0.10636962235E+01  0.51109989000E-03 0. -1.
     -623    1    1    2    0    0  0.10163362057E-02 -0.16622447928E-02  0.11447663482E-03  0.17130000001E+03  0.17130000000E+03 0. -1.
      622    1    1    2    0    0 -0.37801310850E-02 -0.10909299197E-01  0.29362672733E+01  0.29363037654E+01  0.90000000000E-02 0.  1.
</event>
<event>
 5   0  0.6135700E+09  0.9118800E+02  0.7818608E-02  0.1180000E+00
       11   -1    0    0    0    0  0.00000000000E+00  0.00000000000E+00  0.39999999673E+01  0.40000000000E+01  0.51109989000E-03 0.  1.
     -623   -1    0    0    0    0  0.00000000000E+00  0.00000000000E+00  0.12525980253E-10  0.17130000000E+03  0.17130000000E+03 0. -1.
       11    1    1    2    0    0 -0.52456839380E-03  0.87989558145E-04  0.21253146698E-02  0.22496888019E-02  0.51109989000E-03 0.  1.
     -623    1    1    2    0    0  0.17190449599E-02  0.22990520254E-03  0.13467212216E-03  0.17130000001E+03  0.17130000000E+03 0. -1.
      622    1    1    2    0    0 -0.11944765668E-02 -0.31789476078E-03  0.39977399821E+01  0.39977503039E+01  0.90000000000E-02 0.  1.
</event>
<event>
 5   0  0.6135700E+09  0.9118800E+02  0.7818608E-02  0.1180000E+00
       11   -1    0    0    0    0  0.00000000000E+00  0.00000000000E+00  0.39999999673E+01  0.40000000000E+01  0.51109989000E-03 0. -1.
     -623   -1    0    0    0    0  0.00000000000E+00  0.00000000000E+00  0.12525980253E-10  0.17130000000E+03  0.17130000000E+03 0.  1.
       11    1    1    2    0    0  0.42667833559E-02  0.11268292814E-02  0.84812607745E-01  0.84928881072E-01  0.51109989000E-03 0. -1.
     -623    1    1    2    0    0 -0.21117562668E-02  0.37000036780E-03  0.12747805415E-03  0.17130000001E+03  0.17130000000E+03 0.  1.
      622    1    1    2    0    0 -0.21550270871E-02 -0.14968296495E-02  0.39150598854E+01  0.39150711093E+01  0.90000000000E-02 0. -1.
</event>
<event>
 5   0  0.6135700E+09  0.9118800E+02  0.7818608E-02  0.1180000E+00
       11   -1    0    0    0    0  0.00000000000E+00  0.00000000000E+00  0.39999999673E+01  0.40000000000E+01  0.51109989000E-03 0.  1.
     -623   -1    0    0    0    0  0.00000000000E+00  0.00000000000E+00  0.12525980253E-10  0.17130000000E+03  0.17130000000E+03 0.  1.
       11    1    1    2    0    0 -0.28522850263E-02 -0.61871294769E-02  0.32900279665E+00  0.32907372659E+00  0.51109989000E-03 0.  1.
     -623    1    1    2    0    0  0.49170983423E-02 -0.11358488153E-02  0.89889199524E-04  0.17130000007E+03  0.17130000000E+03 0.  1.
      622    1    1    2    0    0 -0.20648133169E-02  0.73229782924E-02  0.36709072822E+01  0.36709261998E+01  0.90000000000E-02 0.  1.
</event>
<event>
 5   0  0.6135700E+09  0.9118800E+02  0.7818608E-02  0.1180000E+00
       11   -1    0    0    0    0  0.00000000000E+00  0.00000000000E+00  0.39999999673E+01  0.40000000000E+01  0.51109989000E-03 0.  1.
     -623   -1    0    0    0    0  0.00000000000E+00  0.00000000000E+00  0.12525980253E-10  0.17130000000E+03  0.17130000000E+03 0. -1.
       11    1    1    2    0    0 -0.80349086637E-03 -0.86535879752E-03  0.62812396698E-01  0.62825574772E-01  0.51109989000E-03 0.  1.
     -623    1    1    2    0    0 -0.10887028834E-04 -0.11341617485E-03  0.23637937696E-04  0.17130000000E+03  0.17130000000E+03 0. -1.
      622    1    1    2    0    0  0.81437789520E-03  0.97877497232E-03  0.39371639309E+01  0.39371744234E+01  0.90000000000E-02 0.  1.
</event>
<event>
 5   0  0.6135700E+09  0.9118800E+02  0.7818608E-02  0.1180000E+00
       11   -1    0    0    0    0  0.00000000000E+00  0.00000000000E+00  0.39999999673E+01  0.40000000000E+01  0.51109989000E-03 0. -1.
     -623   -1    0    0    0    0  0.00000000000E+00  0.00000000000E+00  0.12525980253E-10  0.17130000000E+03  0.17130000000E+03 0. -1.
       11    1    1    2    0    0  0.13474779982E-02  0.42988662539E-02  0.68000723853E+00  0.68002235377E+00  0.51109989000E-03 0. -1.
     -623    1    1    2    0    0  0.32032426027E-02  0.18075888324E-03  0.33452594240E-04  0.17130000003E+03  0.17130000000E+03 0. -1.
      622    1    1    2    0    0 -0.45507206010E-02 -0.44796251372E-02  0.33199592762E+01  0.33199776162E+01  0.90000000000E-02 0. -1.
</event>
<event>
 5   0  0.6135700E+09  0.9118800E+02  0.7818608E-02  0.1180000E+00
       11   -1    0    0    0    0  0.00000000000E+00  0.00000000000E+00  0.39999999673E+01  0.40000000000E+01  0.51109989000E-03 0.  1.
     -623   -1    0    0    0    0  0.00000000000E+00  0.00000000000E+00  0.12525980253E-10  0.17130000000E+03  0.17130000000E+03 0.  1.
       11    1    1    2    0    0 -0.56053928268E-03  0.29885725533E-03  0.71386621390E+00  0.71386667949E+00  0.51109989000E-03 0.  1.
     -623    1    1    2    0    0  0.26553554202E-02 -0.24925587249E-03  0.13446322297E-04  0.17130000002E+03  0.17130000000E+03 0.  1.
      622    1    1    2    0    0 -0.20948161375E-02 -0.49601382831E-04  0.32861203071E+01  0.32861332997E+01  0.90000000000E-02 0.  1.
</event>
<event>
 5   0  0.6135700E+09  0.9118800E+02  0.7818608E-02  0.1180000E+00
       11   -1    0    0    0    0  0.00000000000E+00  0.00000000000E+00  0.39999999673E+01  0.40000000000E+01  0.51109989000E-03 0.  1.
     -623   -1    0    0    0    0  0.00000000000E+00  0.00000000000E+00  0.12525980253E-10  0.17130000000E+03  0.17130000000E+03 0. -1.
       11    1    1    2    0    0 -0.74229319388E-03  0.74037902634E-03  0.51619468900E-01  0.51632644249E-01  0.51109989000E-03 0.  1.
     -623    1    1    2    0    0 -0.27243144721E-03 -0.77553885985E-04  0.23586389147E-04  0.17130000000E+03  0.17130000000E+03 0. -1.
      622    1    1    2    0    0  0.10147246411E-02 -0.66282514035E-03  0.39483569121E+01  0.39483673555E+01  0.90000000000E-02 0.  1.
</event>
<event>
 5   0  0.6135700E+09  0.9118800E+02  0.7818608E-02  0.1180000E+00
       11   -1    0    0    0    0  0.00000000000E+00  0.00000000000E+00  0.39999999673E+01  0.40000000000E+01  0.51109989000E-03 0. -1.
     -623   -1    0    0    0    0  0.00000000000E+00  0.00000000000E+00  0.12525980253E-10  0.17130000000E+03  0.17130000000E+03 0.  1.
       11    1    1    2    0    0  0.20433630712E-03 -0.23283783698E-02  0.38047413314E-02  0.44944831578E-02  0.51109989000E-03 0. -1.
     -623    1    1    2    0    0  0.16288258251E-02 -0.70257621948E-03  0.70142637417E-03  0.17130000001E+03  0.17130000000E+03 0.  1.
      622    1    1    2    0    0 -0.18331621322E-02  0.30309545893E-02  0.39954937996E+01  0.39955055062E+01  0.90000000000E-02 0. -1.
</event>
<event>
 5   0  0.6135700E+09  0.9118800E+02  0.7818608E-02  0.1180000E+00
       11   -1    0    0    0    0  0.00000000000E+00  0.00000000000E+00  0.39999999673E+01  0.40000000000E+01  0.51109989000E-03 0. -1.
     -623   -1    0    0    0    0  0.00000000000E+00  0.00000000000E+00  0.12525980253E-10  0.17130000000E+03  0.17130000000E+03 0. -1.
       11    1    1    2    0    0 -0.23555818641E-02  0.85327003530E-03  0.11701611934E+01  0.11701639871E+01  0.51109989000E-03 0. -1.
     -623    1    1    2    0    0  0.74180857763E-03  0.99426888862E-04  0.17694984744E-04  0.17130000000E+03  0.17130000000E+03 0. -1.
      622    1    1    2    0    0  0.16137732850E-02 -0.95269692436E-03  0.28298210869E+01  0.28298360192E+01  0.90000000000E-02 0.  0.
</event>
<event>
 5   0  0.6135700E+09  0.9118800E+02  0.7818608E-02  0.1180000E+00
       11   -1    0    0    0    0  0.00000000000E+00  0.00000000000E+00  0.39999999673E+01  0.40000000000E+01  0.51109989000E-03 0.  1.
     -623   -1    0    0    0    0  0.00000000000E+00  0.00000000000E+00  0.12525980253E-10  0.17130000000E+03  0.17130000000E+03 0. -1.
       11    1    1    2    0    0  0.27735985179E-03  0.25900839834E-02  0.70398979930E+00  0.70399480410E+00  0.51109989000E-03 0.  1.
     -623    1    1    2    0    0  0.14339537810E-04  0.17238563864E-03  0.18430438824E-04  0.17130000000E+03  0.17130000000E+03 0. -1.
      622    1    1    2    0    0 -0.29169938963E-03 -0.27624696224E-02  0.32959917457E+01  0.32960052038E+01  0.90000000000E-02 0.  0.
</event>
<event>
 5   0  0.6135700E+09  0.9118800E+02  0.7818608E-02  0.1180000E+00
       11   -1    0    0    0    0  0.00000000000E+00  0.00000000000E+00  0.39999999673E+01  0.40000000000E+01  0.51109989000E-03 0.  1.
     -623   -1    0    0    0    0  0.00000000000E+00  0.00000000000E+00  0.12525980253E-10  0.17130000000E+03  0.17130000000E+03 0.  1.
       11    1    1    2    0    0  0.18833474390E-02  0.51464741931E-03  0.82375154582E-01  0.82399873635E-01  0.51109989000E-03 0.  1.
     -623    1    1    2    0    0 -0.82060094665E-03 -0.62845087841E-03  0.35173311560E-04  0.17130000000E+03  0.17130000000E+03 0.  1.
      622    1    1    2    0    0 -0.10627464915E-02  0.11380345981E-03  0.39175896440E+01  0.39176001278E+01  0.90000000000E-02 0.  1.
</event>
<event>
 5   0  0.6135700E+09  0.9118800E+02  0.7818608E-02  0.1180000E+00
       11   -1    0    0    0    0  0.00000000000E+00  0.00000000000E+00  0.39999999673E+01  0.40000000000E+01  0.51109989000E-03 0. -1.
     -623   -1    0    0    0    0  0.00000000000E+00  0.00000000000E+00  0.12525980253E-10  0.17130000000E+03  0.17130000000E+03 0.  1.
       11    1    1    2    0    0  0.15674230222E-03 -0.16889753503E-03  0.46296753405E-01  0.46300147857E-01  0.51109989000E-03 0. -1.
     -623    1    1    2    0    0  0.76142324315E-03  0.24844933235E-03  0.13714681188E-04  0.17130000000E+03  0.17130000000E+03 0.  1.
      622    1    1    2    0    0 -0.91816554537E-03 -0.79551797315E-04  0.39536894993E+01  0.39536998503E+01  0.90000000000E-02 0. -1.
</event>
<event>
 5   0  0.6135700E+09  0.9118800E+02  0.7818608E-02  0.1180000E+00
       11   -1    0    0    0    0  0.00000000000E+00  0.00000000000E+00  0.39999999673E+01  0.40000000000E+01  0.51109989000E-03 0. -1.
     -623   -1    0    0    0    0  0.00000000000E+00  0.00000000000E+00  0.12525980253E-10  0.17130000000E+03  0.17130000000E+03 0. -1.
       11    1    1    2    0    0  0.53737382308E-03 -0.68228680276E-03  0.45188266803E-01  0.45199501823E-01  0.51109989000E-03 0. -1.
     -623    1    1    2    0    0  0.28851615136E-03  0.44036759008E-03  0.21537558573E-04  0.17130000000E+03  0.17130000000E+03 0. -1.
      622    1    1    2    0    0 -0.82588997444E-03  0.24191921267E-03  0.39547901630E+01  0.39548004974E+01  0.90000000000E-02 0. -1.
</event>
<event>
 5   0  0.6135700E+09  0.9118800E+02  0.7818608E-02  0.1180000E+00
       11   -1    0    0    0    0  0.00000000000E+00  0.00000000000E+00  0.39999999673E+01  0.40000000000E+01  0.51109989000E-03 0.  1.
     -623   -1    0    0    0    0  0.00000000000E+00  0.00000000000E+00  0.12525980253E-10  0.17130000000E+03  0.17130000000E+03 0. -1.
       11    1    1    2    0    0 -0.40253361391E-02  0.12136587024E-02  0.38270332422E+00  0.38272675879E+00  0.51109989000E-03 0.  1.
     -623    1    1    2    0    0  0.48854048840E-03  0.10412820004E-03  0.36568052332E-04  0.17130000000E+03  0.17130000000E+03 0. -1.
      622    1    1    2    0    0  0.35367956502E-02 -0.13177869026E-02  0.36172600797E+01  0.36172732451E+01  0.90000000000E-02 0.  0.
</event>
<event>
 5   0  0.6135700E+09  0.9118800E+02  0.7818608E-02  0.1180000E+00
       11   -1    0    0    0    0  0.00000000000E+00  0.00000000000E+00  0.39999999673E+01  0.40000000000E+01  0.51109989000E-03 0. -1.
     -623   -1    0    0    0    0  0.00000000000E+00  0.00000000000E+00  0.12525980253E-10  0.17130000000E+03  0.17130000000E+03 0.  1.
       11    1    1    2    0    0  0.16194229573E-02 -0.11064148960E-03  0.46248018286E-01  0.46279317094E-01  0.51109989000E-03 0. -1.
     -623    1    1    2    0    0  0.33854456825E-03  0.47889019026E-04  0.41995356799E-04  0.17130000000E+03  0.17130000000E+03 0.  1.
      622    1    1    2    0    0 -0.19579675261E-02  0.62752470513E-04  0.39537099592E+01  0.39537206881E+01  0.90000000000E-02 0. -1.
</event>
<event>
 5   0  0.6135700E+09  0.9118800E+02  0.7818608E-02  0.1180000E+00
       11   -1    0    0    0    0  0.00000000000E+00  0.00000000000E+00  0.39999999673E+01  0.40000000000E+01  0.51109989000E-03 0. -1.
     -623   -1    0    0    0    0  0.00000000000E+00  0.00000000000E+00  0.12525980253E-10  0.17130000000E+03  0.17130000000E+03 0.  1.
       11    1    1    2    0    0  0.91756456292E-03 -0.12852645722E-02  0.51508812844E-01  0.51535549407E-01  0.51109989000E-03 0. -1.
     -623    1    1    2    0    0 -0.61340183401E-02  0.34821284815E-03  0.40628293508E-04  0.17130000011E+03  0.17130000000E+03 0.  1.
      622    1    1    2    0    0  0.52164537772E-02  0.93705172405E-03  0.39484505262E+01  0.39484643404E+01  0.90000000000E-02 0. -1.
</event>
<event>
 5   0  0.6135700E+09  0.9118800E+02  0.7818608E-02  0.1180000E+00
       11   -1    0    0    0    0  0.00000000000E+00  0.00000000000E+00  0.39999999673E+01  0.40000000000E+01  0.51109989000E-03 0.  1.
     -623   -1    0    0    0    0  0.00000000000E+00  0.00000000000E+00  0.12525980253E-10  0.17130000000E+03  0.17130000000E+03 0. -1.
       11    1    1    2    0    0 -0.15586216914E-02  0.43627679461E-02  0.20105777235E+00  0.20111179003E+00  0.51109989000E-03 0.  1.
     -623    1    1    2    0    0 -0.93599049619E-03 -0.10647062111E-02  0.66902658169E-04  0.17130000001E+03  0.17130000000E+03 0. -1.
      622    1    1    2    0    0  0.24946121871E-02 -0.32980617357E-02  0.37988752899E+01  0.37988882017E+01  0.90000000000E-02 0.  1.
</event>
<event>
 5   0  0.6135700E+09  0.9118800E+02  0.7818608E-02  0.1180000E+00
       11   -1    0    0    0    0  0.00000000000E+00  0.00000000000E+00  0.39999999673E+01  0.40000000000E+01  0.51109989000E-03 0.  1.
     -623   -1    0    0    0    0  0.00000000000E+00  0.00000000000E+00  0.12525980253E-10  0.17130000000E+03  0.17130000000E+03 0. -1.
       11    1    1    2    0    0  0.13105258353E-02 -0.84947403406E-03  0.11289939767E+00  0.11291135594E+00  0.51109989000E-03 0.  1.
     -623    1    1    2    0    0 -0.13088384509E-02  0.57075376537E-02  0.25480646418E-04  0.17130000010E+03  0.17130000000E+03 0. -1.
      622    1    1    2    0    0 -0.16873785455E-05 -0.48580636452E-02  0.38870751070E+01  0.38870885619E+01  0.90000000000E-02 0.  1.
</event>
<event>
 5   0  0.6135700E+09  0.9118800E+02  0.7818608E-02  0.1180000E+00
       11   -1    0    0    0    0  0.00000000000E+00  0.00000000000E+00  0.39999999673E+01  0.40000000000E+01  0.51109989000E-03 0.  1.
     -623   -1    0    0    0    0  0.00000000000E+00  0.00000000000E+00  0.12525980253E-10  0.17130000000E+03  0.17130000000E+03 0. -1.
       11    1    1    2    0    0  0.68453733439E-03  0.57857382391E-02  0.78346660208E+00  0.78348843077E+00  0.51109989000E-03 0.  1.
     -623    1    1    2    0    0  0.79019639918E-04 -0.20455481974E-03  0.39320296335E-04  0.17130000000E+03  0.17130000000E+03 0. -1.
      622    1    1    2    0    0 -0.76355697431E-03 -0.55811834194E-02  0.32164940450E+01  0.32165115691E+01  0.90000000000E-02 0.  1.
</event>
<event>
 5   0  0.6135700E+09  0.9118800E+02  0.7818608E-02  0.1180000E+00
       11   -1    0    0    0    0  0.00000000000E+00  0.00000000000E+00  0.39999999673E+01  0.40000000000E+01  0.51109989000E-03 0.  1.
     -623   -1    0    0    0    0  0.00000000000E+00  0.00000000000E+00  0.12525980253E-10  0.17130000000E+03  0.17130000000E+03 0.  1.
       11    1    1    2    0    0  0.14870288643E-02 -0.42609852782E-02  0.13435143562E+00  0.13442818427E+00  0.51109989000E-03 0.  1.
     -623    1    1    2    0    0 -0.26516690880E-02  0.78723201881E-02  0.89256928879E-04  0.17130000020E+03  0.17130000000E+03 0.  1.
      622    1    1    2    0    0  0.11646402254E-02 -0.36113349150E-02  0.38655592774E+01  0.38655716169E+01  0.90000000000E-02 0.  1.
</event>
<event>
 5   0  0.6135700E+09  0.9118800E+02  0.7818608E-02  0.1180000E+00
       11   -1    0    0    0    0  0.00000000000E+00  0.00000000000E+00  0.39999999673E+01  0.40000000000E+01  0.51109989000E-03 0. -1.
     -623   -1    0    0    0    0  0.00000000000E+00  0.00000000000E+00  0.12525980253E-10  0.17130000000E+03  0.17130000000E+03 0. -1.
       11    1    1    2    0    0 -0.39504481120E-03  0.44938836559E-03  0.64776682920E+00  0.64776730718E+00  0.51109989000E-03 0. -1.
     -623    1    1    2    0    0  0.12004486734E-03 -0.21392769764E-03  0.12546580999E-04  0.17130000000E+03  0.17130000000E+03 0. -1.
      622    1    1    2    0    0  0.27499994386E-03 -0.23546066795E-03  0.33522205916E+01  0.33522326926E+01  0.90000000000E-02 0. -1.
</event>
<event>
 5   0  0.6135700E+09  0.9118800E+02  0.7818608E-02  0.1180000E+00
       11   -1    0    0    0    0  0.00000000000E+00  0.00000000000E+00  0.39999999673E+01  0.40000000000E+01  0.51109989000E-03 0. -1.
     -623   -1    0    0    0    0  0.00000000000E+00  0.00000000000E+00  0.12525980253E-10  0.17130000000E+03  0.17130000000E+03 0.  1.
       11    1    1    2    0    0 -0.21563249009E-03 -0.24364264485E-03  0.22211871612E-01  0.22220133274E-01  0.51109989000E-03 0.  1.
     -623    1    1    2    0    0  0.87005323572E-05 -0.65269319168E-04  0.18427984997E-04  0.17130000000E+03  0.17130000000E+03 0.  1.
      622    1    1    2    0    0  0.20693195774E-03  0.30891196396E-03  0.39777696642E+01  0.39777798632E+01  0.90000000000E-02 0. -1.
</event>
<event>
 5   0  0.6135700E+09  0.9118800E+02  0.7818608E-02  0.1180000E+00
       11   -1    0    0    0    0  0.00000000000E+00  0.00000000000E+00  0.39999999673E+01  0.40000000000E+01  0.51109989000E-03 0.  1.
     -623   -1    0    0    0    0  0.00000000000E+00  0.00000000000E+00  0.12525980253E-10  0.17130000000E+03  0.17130000000E+03 0. -1.
       11    1    1    2    0    0  0.10357145988E-02  0.46463811876E-03  0.16375751846E-01  0.16423004138E-01  0.51109989000E-03 0.  1.
     -623    1    1    2    0    0 -0.20205617473E-02 -0.61297439499E-03  0.57523932973E-04  0.17130000001E+03  0.17130000000E+03 0. -1.
      622    1    1    2    0    0  0.98484714866E-03  0.14833627627E-03  0.39835666919E+01  0.39835769831E+01  0.90000000000E-02 0.  1.
</event>
<event>
 5   0  0.6135700E+09  0.9118800E+02  0.7818608E-02  0.1180000E+00
       11   -1    0    0    0    0  0.00000000000E+00  0.00000000000E+00  0.39999999673E+01  0.40000000000E+01  0.51109989000E-03 0.  1.
     -623   -1    0    0    0    0  0.00000000000E+00  0.00000000000E+00  0.12525980253E-10  0.17130000000E+03  0.17130000000E+03 0.  1.
       11    1    1    2    0    0 -0.43764960326E-02 -0.46395301887E-03  0.10569888959E+00  0.10579170786E+00  0.51109989000E-03 0.  1.
     -623    1    1    2    0    0  0.67788751546E-03  0.18891468721E-03  0.10495332083E-03  0.17130000000E+03  0.17130000000E+03 0.  1.
      622    1    1    2    0    0  0.36986085171E-02  0.27503833166E-03  0.38941961245E+01  0.38942082907E+01  0.90000000000E-02 0.  1.
</event>
<event>
 5   0  0.6135700E+09  0.9118800E+02  0.7818608E-02  0.1180000E+00
       11   -1    0    0    0    0  0.00000000000E+00  0.00000000000E+00  0.39999999673E+01  0.40000000000E+01  0.51109989000E-03 0. -1.
     -623   -1    0    0    0    0  0.00000000000E+00  0.00000000000E+00  0.12525980253E-10  0.17130000000E+03  0.17130000000E+03 0.  1.
       11    1    1    2    0    0  0.64223341307E-03 -0.78908696492E-03  0.43061327820E-01  0.43076377502E-01  0.51109989000E-03 0. -1.
     -623    1    1    2    0    0  0.40948242254E-03 -0.23311954733E-04  0.25475938402E-04  0.17130000000E+03  0.17130000000E+03 0.  1.
      622    1    1    2    0    0 -0.10517158367E-02  0.81239891971E-03  0.39569131739E+01  0.39569236323E+01  0.90000000000E-02 0. -1.
</event>
<event>
 5   0  0.6135700E+09  0.9118800E+02  0.7818608E-02  0.1180000E+00
       11   -1    0    0    0    0  0.00000000000E+00  0.00000000000E+00  0.39999999673E+01  0.40000000000E+01  0.51109989000E-03 0. -1.
     -623   -1    0    0    0    0  0.00000000000E+00  0.00000000000E+00  0.12525980253E-10  0.17130000000E+03  0.17130000000E+03 0. -1.
       11    1    1    2    0    0  0.12491632285E-02  0.23015345893E-02  0.25316977984E+00  0.25318383858E+00  0.51109989000E-03 0. -1.
     -623    1    1    2    0    0 -0.51308823317E-02 -0.29234645939E-02  0.26999445020E-04  0.17130000010E+03  0.17130000000E+03 0. -1.
      622    1    1    2    0    0  0.38817191130E-02  0.62193001010E-03  0.37468031956E+01  0.37468160672E+01  0.90000000000E-02 0. -1.
</event>
<event>
 5   0  0.6135700E+09  0.9118800E+02  0.7818608E-02  0.1180000E+00
       11   -1    0    0    0    0  0.00000000000E+00  0.00000000000E+00  0.39999999673E+01  0.40000000000E+01  0.51109989000E-03 0.  1.
     -623   -1    0    0    0    0  0.00000000000E+00  0.00000000000E+00  0.12525980253E-10  0.17130000000E+03  0.17130000000E+03 0. -1.
       11    1    1    2    0    0  0.12058907581E-02  0.43094448437E-04  0.39325108356E+00  0.39325326695E+00  0.51109989000E-03 0. -1.
     -623    1    1    2    0    0 -0.39116132735E-03 -0.77299668840E-06  0.13472445469E-04  0.17130000000E+03  0.17130000000E+03 0. -1.
      622    1    1    2    0    0 -0.81472943071E-03 -0.42321451749E-04  0.36067354114E+01  0.36067467326E+01  0.90000000000E-02 0.  1.
</event>
<event>
 5   0  0.6135700E+09  0.9118800E+02  0.7818608E-02  0.1180000E+00
       11   -1    0    0    0    0  0.00000000000E+00  0.00000000000E+00  0.39999999673E+01  0.40000000000E+01  0.51109989000E-03 0. -1.
     -623   -1    0    0    0    0  0.00000000000E+00  0.00000000000E+00  0.12525980253E-10  0.17130000000E+03  0.17130000000E+03 0. -1.
       11    1    1    2    0    0 -0.26817370924E-03  0.11861215967E-03  0.10101581559E-01  0.10118752842E-01  0.51109989000E-03 0. -1.
     -623    1    1    2    0    0  0.11867776925E-04 -0.36224151062E-04  0.27298423058E-04  0.17130000000E+03  0.17130000000E+03 0. -1.
      622    1    1    2    0    0  0.25630593229E-03 -0.82388008539E-04  0.39898710949E+01  0.39898812547E+01  0.90000000000E-02 0. -1.
</event>
<event>
 5   0  0.6135700E+09  0.9118800E+02  0.7818608E-02  0.1180000E+00
       11   -1    0    0    0    0  0.00000000000E+00  0.00000000000E+00  0.39999999673E+01  0.40000000000E+01  0.51109989000E-03 0. -1.
     -623   -1    0    0    0    0  0.00000000000E+00  0.00000000000E+00  0.12525980253E-10  0.17130000000E+03  0.17130000000E+03 0.  1.
       11    1    1    2    0    0  0.51614809582E-03 -0.25878120290E-02  0.20037294057E+00  0.20039096715E+00  0.51109989000E-03 0. -1.
     -623    1    1    2    0    0  0.22138526466E-04  0.18309642765E-03  0.29452134797E-04  0.17130000000E+03  0.17130000000E+03 0.  1.
      622    1    1    2    0    0 -0.53828662232E-03  0.24047156011E-02  0.37995975816E+01  0.37996090397E+01  0.90000000000E-02 0.  0.
</event>
<event>
 5   0  0.6135700E+09  0.9118800E+02  0.7818608E-02  0.1180000E+00
       11   -1    0    0    0    0  0.00000000000E+00  0.00000000000E+00  0.39999999673E+01  0.40000000000E+01  0.51109989000E-03 0. -1.
     -623   -1    0    0    0    0  0.00000000000E+00  0.00000000000E+00  0.12525980253E-10  0.17130000000E+03  0.17130000000E+03 0.  1.
       11    1    1    2    0    0 -0.48370042979E-02 -0.11931917965E-02  0.83170626252E+00  0.83172134074E+00  0.51109989000E-03 0. -1.
     -623    1    1    2    0    0 -0.14554251397E-03 -0.14341633817E-03  0.32028527701E-04  0.17130000000E+03  0.17130000000E+03 0.  1.
      622    1    1    2    0    0  0.49825468122E-02  0.13366081350E-02  0.31682616859E+01  0.31682786687E+01  0.90000000000E-02 0. -1.
</event>
<event>
 5   0  0.6135700E+09  0.9118800E+02  0.7818608E-02  0.1180000E+00
       11   -1    0    0    0    0  0.00000000000E+00  0.00000000000E+00  0.39999999673E+01  0.40000000000E+01  0.51109989000E-03 0.  1.
     -623   -1    0    0    0    0  0.00000000000E+00  0.00000000000E+00  0.12525980253E-10  0.17130000000E+03  0.17130000000E+03 0.  1.
       11    1    1    2    0    0  0.13154903433E-02 -0.77725449717E-04  0.27018300331E-01  0.27055245923E-01  0.51109989000E-03 0. -1.
     -623    1    1    2    0    0 -0.82673732369E-04  0.17500813605E-04  0.47298672800E-04  0.17130000000E+03  0.17130000000E+03 0.  1.
      622    1    1    2    0    0 -0.12328166110E-02  0.60224636126E-04  0.39729343650E+01  0.39729447507E+01  0.90000000000E-02 0.  1.
</event>
<event>
 5   0  0.6135700E+09  0.9118800E+02  0.7818608E-02  0.1180000E+00
       11   -1    0    0    0    0  0.00000000000E+00  0.00000000000E+00  0.39999999673E+01  0.40000000000E+01  0.51109989000E-03 0.  1.
     -623   -1    0    0    0    0  0.00000000000E+00  0.00000000000E+00  0.12525980253E-10  0.17130000000E+03  0.17130000000E+03 0. -1.
       11    1    1    2    0    0  0.41266401525E-02  0.60938140045E-02  0.27297443318E+00  0.27307410371E+00  0.51109989000E-03 0.  1.
     -623    1    1    2    0    0  0.26694203792E-02 -0.31238523060E-02  0.11793381528E-03  0.17130000005E+03  0.17130000000E+03 0. -1.
      622    1    1    2    0    0 -0.67960605317E-02 -0.29699616986E-02  0.37269076004E+01  0.37269258470E+01  0.90000000000E-02 0.  1.
</event>
<event>
 5   0  0.6135700E+09  0.9118800E+02  0.7818608E-02  0.1180000E+00
       11   -1    0    0    0    0  0.00000000000E+00  0.00000000000E+00  0.39999999673E+01  0.40000000000E+01  0.51109989000E-03 0. -1.
     -623   -1    0    0    0    0  0.00000000000E+00  0.00000000000E+00  0.12525980253E-10  0.17130000000E+03  0.17130000000E+03 0.  1.
       11    1    1    2    0    0  0.74432445680E-03 -0.14225180068E-02  0.77329318419E-01  0.77347671501E-01  0.51109989000E-03 0. -1.
     -623    1    1    2    0    0 -0.12186312864E-02  0.35948613123E-02  0.29317352808E-04  0.17130000004E+03  0.17130000000E+03 0.  1.
      622    1    1    2    0    0  0.47430683628E-03 -0.21723433251E-02  0.39226413534E+01  0.39226523083E+01  0.90000000000E-02 0. -1.
</event>
<event>
 5   0  0.6135700E+09  0.9118800E+02  0.7818608E-02  0.1180000E+00
       11   -1    0    0    0    0  0.00000000000E+00  0.00000000000E+00  0.39999999673E+01  0.40000000000E+01  0.51109989000E-03 0. -1.
     -623   -1    0    0    0    0  0.00000000000E+00  0.00000000000E+00  0.12525980253E-10  0.17130000000E+03  0.17130000000E+03 0.  1.
       11    1    1    2    0    0 -0.19971290851E-03  0.66463118967E-04  0.66919601660E-01  0.66921884394E-01  0.51109989000E-03 0. -1.
     -623    1    1    2    0    0 -0.12394509247E-03 -0.19542022473E-03  0.12562973728E-04  0.17130000000E+03  0.17130000000E+03 0.  1.
      622    1    1    2    0    0  0.32365800098E-03  0.12895710576E-03  0.39330678027E+01  0.39330781154E+01  0.90000000000E-02 0. -1.
</event>
<event>
 5   0  0.6135700E+09  0.9118800E+02  0.7818608E-02  0.1180000E+00
       11   -1    0    0    0    0  0.00000000000E+00  0.00000000000E+00  0.39999999673E+01  0.40000000000E+01  0.51109989000E-03 0.  1.
     -623   -1    0    0    0    0  0.00000000000E+00  0.00000000000E+00  0.12525980253E-10  0.17130000000E+03  0.17130000000E+03 0. -1.
       11    1    1    2    0    0  0.48837740215E-02  0.22636074553E-02  0.36206929695E+00  0.36210966872E+00  0.51109989000E-03 0.  1.
     -623    1    1    2    0    0 -0.12707967965E-02  0.50263323454E-03  0.54323285620E-04  0.17130000001E+03  0.17130000000E+03 0. -1.
      622    1    1    2    0    0 -0.36129772238E-02 -0.27662406902E-02  0.36378763507E+01  0.36378903294E+01  0.90000000000E-02 0.  1.
</event>
<event>
 5   0  0.6135700E+09  0.9118800E+02  0.7818608E-02  0.1180000E+00
       11   -1    0    0    0    0  0.00000000000E+00  0.00000000000E+00  0.39999999673E+01  0.40000000000E+01  0.51109989000E-03 0.  1.
     -623   -1    0    0    0    0  0.00000000000E+00  0.00000000000E+00  0.12525980253E-10  0.17130000000E+03  0.17130000000E+03 0. -1.
       11    1    1    2    0    0 -0.11638198675E-03  0.68880449482E-03  0.14983181637E-01  0.15008162773E-01  0.51109989000E-03 0. -1.
     -623    1    1    2    0    0 -0.27647564512E-03  0.25535995290E-03  0.35243273896E-04  0.17130000000E+03  0.17130000000E+03 0. -1.
      622    1    1    2    0    0  0.39285763187E-03 -0.94416444772E-03  0.39849815424E+01  0.39849918368E+01  0.90000000000E-02 0.  1.
</event>
<event>
 5   0  0.6135700E+09  0.9118800E+02  0.7818608E-02  0.1180000E+00
       11   -1    0    0    0    0  0.00000000000E+00  0.00000000000E+00  0.39999999673E+01  0.40000000000E+01  0.51109989000E-03 0.  1.
     -623   -1    0    0    0    0  0.00000000000E+00  0.00000000000E+00  0.12525980253E-10  0.17130000000E+03  0.17130000000E+03 0.  1.
       11    1    1    2    0    0  0.25473424296E-03 -0.21365931941E-02  0.51099884982E-01  0.51147721242E-01  0.51109989000E-03 0.  1.
     -623    1    1    2    0    0  0.50775894415E-03  0.13366805146E-03  0.58642169035E-04  0.17130000000E+03  0.17130000000E+03 0.  1.
      622    1    1    2    0    0 -0.76249318758E-03  0.20029251425E-02  0.39488414439E+01  0.39488522816E+01  0.90000000000E-02 0.  1.
</event>
<event>
 5   0  0.6135700E+09  0.9118800E+02  0.7818608E-02  0.1180000E+00
       11   -1    0    0    0    0  0.00000000000E+00  0.00000000000E+00  0.39999999673E+01  0.40000000000E+01  0.51109989000E-03 0. -1.
     -623   -1    0    0    0    0  0.00000000000E+00  0.00000000000E+00  0.12525980253E-10  0.17130000000E+03  0.17130000000E+03 0. -1.
       11    1    1    2    0    0 -0.88868647244E-04  0.10213069684E-03  0.14416198185E-01  0.14425890667E-01  0.51109989000E-03 0.  1.
     -623    1    1    2    0    0  0.20143834488E-03  0.64489072878E-03  0.19894433015E-04  0.17130000000E+03  0.17130000000E+03 0. -1.
      622    1    1    2    0    0 -0.11256969814E-03 -0.74702142725E-03  0.39855638848E+01  0.39855741181E+01  0.90000000000E-02 0. -1.
</event>
<event>
 5   0  0.6135700E+09  0.9118800E+02  0.7818608E-02  0.1180000E+00
       11   -1    0    0    0    0  0.00000000000E+00  0.00000000000E+00  0.39999999673E+01  0.40000000000E+01  0.51109989000E-03 0.  1.
     -623   -1    0    0    0    0  0.00000000000E+00  0.00000000000E+00  0.12525980253E-10  0.17130000000E+03  0.17130000000E+03 0.  1.
       11    1    1    2    0    0 -0.95209114854E-03  0.18945187845E-02  0.15882789521E+00  0.15884286952E+00  0.51109989000E-03 0.  1.
     -623    1    1    2    0    0 -0.74586165213E-03 -0.16512901620E-02  0.25877951288E-04  0.17130000001E+03  0.17130000000E+03 0.  1.
      622    1    1    2    0    0  0.16979528007E-02 -0.24322862250E-03  0.38411461942E+01  0.38411571209E+01  0.90000000000E-02 0.  1.
</event>
<event>
 5   0  0.6135700E+09  0.9118800E+02  0.7818608E-02  0.1180000E+00
       11   -1    0    0    0    0  0.00000000000E+00  0.00000000000E+00  0.39999999673E+01  0.40000000000E+01  0.51109989000E-03 0.  1.
     -623   -1    0    0    0    0  0.00000000000E+00  0.00000000000E+00  0.12525980253E-10  0.17130000000E+03  0.17130000000E+03 0.  1.
       11    1    1    2    0    0  0.34081312765E-02  0.49132408048E-03  0.20578367631E+00  0.20581311770E+00  0.51109989000E-03 0. -1.
     -623    1    1    2    0    0 -0.34854505774E-02 -0.16249824747E-02  0.40296306129E-04  0.17130000004E+03  0.17130000000E+03 0.  1.
      622    1    1    2    0    0  0.77319300864E-04  0.11336583942E-02  0.37941759947E+01  0.37941868391E+01  0.90000000000E-02 0.  1.
</event>
<event>
 5   0  0.6135700E+09  0.9118800E+02  0.7818608E-02  0.1180000E+00
       11   -1    0    0    0    0  0.00000000000E+00  0.00000000000E+00  0.39999999673E+01  0.40000000000E+01  0.51109989000E-03 0.  1.
     -623   -1    0    0    0    0  0.00000000000E+00  0.00000000000E+00  0.12525980253E-10  0.17130000000E+03  0.17130000000E+03 0.  1.
       11    1    1    2    0    0 -0.25675929222E-03  0.64920305079E-03  0.18414486113E-01  0.18434801649E-01  0.51109989000E-03 0.  1.
     -623    1    1    2    0    0  0.54206069684E-03  0.46189602038E-03  0.30621525302E-04  0.17130000000E+03  0.17130000000E+03 0.  1.
      622    1    1    2    0    0 -0.28530140656E-03 -0.11110990728E-02  0.39815548740E+01  0.39815652112E+01  0.90000000000E-02 0.  1.
</event>
<event>
 5   0  0.6135700E+09  0.9118800E+02  0.7818608E-02  0.1180000E+00
       11   -1    0    0    0    0  0.00000000000E+00  0.00000000000E+00  0.39999999673E+01  0.40000000000E+01  0.51109989000E-03 0.  1.
     -623   -1    0    0    0    0  0.00000000000E+00  0.00000000000E+00  0.12525980253E-10  0.17130000000E+03  0.17130000000E+03 0. -1.
       11    1    1    2    0    0 -0.12877510737E-02 -0.92422125997E-03  0.19461052042E+00  0.19461764660E+00  0.51109989000E-03 0.  1.
     -623    1    1    2    0    0 -0.82766293399E-04  0.31886781252E-04  0.18087822641E-04  0.17130000000E+03  0.17130000000E+03 0. -1.
      622    1    1    2    0    0  0.13705173670E-02  0.89233447877E-03  0.38053713534E+01  0.38053823477E+01  0.90000000000E-02 0.  1.
</event>
<event>
 5   0  0.6135700E+09  0.9118800E+02  0.7818608E-02  0.1180000E+00
       11   -1    0    0    0    0  0.00000000000E+00  0.00000000000E+00  0.39999999673E+01  0.40000000000E+01  0.51109989000E-03 0. -1.
     -623   -1    0    0    0    0  0.00000000000E+00  0.00000000000E+00  0.12525980253E-10  0.17130000000E+03  0.17130000000E+03 0. -1.
       11    1    1    2    0    0 -0.41269011454E-02  0.27110664490E-02  0.18164318131E+00  0.18171100058E+00  0.51109989000E-03 0. -1.
     -623    1    1    2    0    0  0.11446937671E-01 -0.79792844947E-02  0.89612845607E-04  0.17130000057E+03  0.17130000000E+03 0. -1.
      622    1    1    2    0    0 -0.73200365251E-02  0.52682180457E-02  0.38182671732E+01  0.38182884311E+01  0.90000000000E-02 0. -1.
</event>
<event>
 5   0  0.6135700E+09  0.9118800E+02  0.7818608E-02  0.1180000E+00
       11   -1    0    0    0    0  0.00000000000E+00  0.00000000000E+00  0.39999999673E+01  0.40000000000E+01  0.51109989000E-03 0. -1.
     -623   -1    0    0    0    0  0.00000000000E+00  0.00000000000E+00  0.12525980253E-10  0.17130000000E+03  0.17130000000E+03 0. -1.
       11    1    1    2    0    0  0.23031075887E-02 -0.51897025047E-02  0.48515737506E+00  0.48519086669E+00  0.51109989000E-03 0. -1.
     -623    1    1    2    0    0  0.34996699332E-04  0.26787552865E-02  0.46677207395E-04  0.17130000002E+03  0.17130000000E+03 0. -1.
      622    1    1    2    0    0 -0.23381042880E-02  0.25109472183E-02  0.35147959151E+01  0.35148091124E+01  0.90000000000E-02 0.  1.
</event>
<event>
 5   0  0.6135700E+09  0.9118800E+02  0.7818608E-02  0.1180000E+00
       11   -1    0    0    0    0  0.00000000000E+00  0.00000000000E+00  0.39999999673E+01  0.40000000000E+01  0.51109989000E-03 0.  1.
     -623   -1    0    0    0    0  0.00000000000E+00  0.00000000000E+00  0.12525980253E-10  0.17130000000E+03  0.17130000000E+03 0. -1.
       11    1    1    2    0    0 -0.40754655690E-03  0.15576589294E-02  0.22631162356E+00  0.22631792810E+00  0.51109989000E-03 0.  1.
     -623    1    1    2    0    0  0.34754696006E-03 -0.17122483518E-03  0.17259734798E-04  0.17130000000E+03  0.17130000000E+03 0. -1.
      622    1    1    2    0    0  0.59999595330E-04 -0.13864340935E-02  0.37736711015E+01  0.37736820889E+01  0.90000000000E-02 0.  1.
</event>
<event>
 5   0  0.6135700E+09  0.9118800E+02  0.7818608E-02  0.1180000E+00
       11   -1    0    0    0    0  0.00000000000E+00  0.00000000000E+00  0.39999999673E+01  0.40000000000E+01  0.51109989000E-03 0. -1.
     -623   -1    0    0    0    0  0.00000000000E+00  0.00000000000E+00  0.12525980253E-10  0.17130000000E+03  0.17130000000E+03 0. -1.
       11    1    1    2    0    0  0.19451366065E-02  0.12052985380E-02  0.20913478266E+00  0.20914792574E+00  0.51109989000E-03 0. -1.
     -623    1    1    2    0    0  0.14524702889E-02 -0.19435361710E-02  0.25405719826E-04  0.17130000002E+03  0.17130000000E+03 0. -1.
      622    1    1    2    0    0 -0.33976068954E-02  0.73823763297E-03  0.37908397790E+01  0.37908520571E+01  0.90000000000E-02 0. -1.
</event>
<event>
 5   0  0.6135700E+09  0.9118800E+02  0.7818608E-02  0.1180000E+00
       11   -1    0    0    0    0  0.00000000000E+00  0.00000000000E+00  0.39999999673E+01  0.40000000000E+01  0.51109989000E-03 0. -1.
     -623   -1    0    0    0    0  0.00000000000E+00  0.00000000000E+00  0.12525980253E-10  0.17130000000E+03  0.17130000000E+03 0. -1.
       11    1    1    2    0    0 -0.50361260781E-02 -0.44592339800E-02  0.58822551390E+00  0.58826419555E+00  0.51109989000E-03 0. -1.
     -623    1    1    2    0    0  0.11234574054E-01  0.68312791525E-02  0.57479742092E-04  0.17130000050E+03  0.17130000000E+03 0. -1.
      622    1    1    2    0    0 -0.61984479762E-02 -0.23720451725E-02  0.34117169737E+01  0.34117352998E+01  0.90000000000E-02 0. -1.
</event>
<event>
 5   0  0.6135700E+09  0.9118800E+02  0.7818608E-02  0.1180000E+00
       11   -1    0    0    0    0  0.00000000000E+00  0.00000000000E+00  0.39999999673E+01  0.40000000000E+01  0.51109989000E-03 0.  1.
     -623   -1    0    0    0    0  0.00000000000E+00  0.00000000000E+00  0.12525980253E-10  0.17130000000E+03  0.17130000000E+03 0. -1.
       11    1    1    2    0    0  0.41344408363E-02 -0.29936909115E-02  0.77594922801E+00  0.77596618577E+00  0.51109989000E-03 0.  1.
     -623    1    1    2    0    0  0.10989588850E-02  0.10975403580E-02  0.34299253202E-04  0.17130000001E+03  0.17130000000E+03 0. -1.
      622    1    1    2    0    0 -0.52333997214E-02  0.18961505535E-02  0.32240164403E+01  0.32240338074E+01  0.90000000000E-02 0.  1.
</event>
<event>
 5   0  0.6135700E+09  0.9118800E+02  0.7818608E-02  0.1180000E+00
       11   -1    0    0    0    0  0.00000000000E+00  0.00000000000E+00  0.39999999673E+01  0.40000000000E+01  0.51109989000E-03 0.  1.
     -623   -1    0    0    0    0  0.00000000000E+00  0.00000000000E+00  0.12525980253E-10  0.17130000000E+03  0.17130000000E+03 0.  1.
       11    1    1    2    0    0  0.18956875659E-02 -0.12193642013E-03  0.10393139455E-01  0.10577668472E-01  0.51109989000E-03 0.  1.
     -623    1    1    2    0    0 -0.20212944314E-02  0.89345830309E-03  0.19473918149E-03  0.17130000001E+03  0.17130000000E+03 0.  1.
      622    1    1    2    0    0  0.12560686552E-03 -0.77152188297E-03  0.39894120887E+01  0.39894223172E+01  0.90000000000E-02 0.  1.
</event>
<event>
 5   0  0.6135700E+09  0.9118800E+02  0.7818608E-02  0.1180000E+00
       11   -1    0    0    0    0  0.00000000000E+00  0.00000000000E+00  0.39999999673E+01  0.40000000000E+01  0.51109989000E-03 0. -1.
     -623   -1    0    0    0    0  0.00000000000E+00  0.00000000000E+00  0.12525980253E-10  0.17130000000E+03  0.17130000000E+03 0.  1.
       11    1    1    2    0    0  0.15383898850E-02  0.11145121266E-02  0.11076990698E+01  0.11077008166E+01  0.51109989000E-03 0. -1.
     -623    1    1    2    0    0  0.78431972040E-03  0.28794278385E-03  0.16991669648E-04  0.17130000000E+03  0.17130000000E+03 0.  1.
      622    1    1    2    0    0 -0.23227096076E-02 -0.14024549112E-02  0.28922839171E+01  0.28922991925E+01  0.90000000000E-02 0. -1.
</event>
<event>
 5   0  0.6135700E+09  0.9118800E+02  0.7818608E-02  0.1180000E+00
       11   -1    0    0    0    0  0.00000000000E+00  0.00000000000E+00  0.39999999673E+01  0.40000000000E+01  0.51109989000E-03 0.  1.
     -623   -1    0    0    0    0  0.00000000000E+00  0.00000000000E+00  0.12525980253E-10  0.17130000000E+03  0.17130000000E+03 0. -1.
       11    1    1    2    0    0 -0.41890027424E-03  0.74262249509E-03  0.59701166871E+00  0.59701249632E+00  0.51109989000E-03 0.  1.
     -623    1    1    2    0    0  0.11300455452E-02  0.18924679575E-02  0.13805028118E-04  0.17130000001E+03  0.17130000000E+03 0. -1.
      622    1    1    2    0    0 -0.71114527540E-03 -0.26350904601E-02  0.34029745094E+01  0.34029875053E+01  0.90000000000E-02 0.  0.
</event>
<event>
 5   0  0.6135700E+09  0.9118800E+02  0.7818608E-02  0.1180000E+00
       11   -1    0    0    0    0  0.00000000000E+00  0.00000000000E+00  0.39999999673E+01  0.40000000000E+01  0.51109989000E-03 0.  1.
     -623   -1    0    0    0    0  0.00000000000E+00  0.00000000000E+00  0.12525980253E-10  0.17130000000E+03  0.17130000000E+03 0. -1.
       11    1    1    2    0    0 -0.40471339850E-03 -0.40203565561E-03  0.15266885840E-01  0.15286086875E-01  0.51109989000E-03 0. -1.
     -623    1    1    2    0    0  0.65396967645E-04  0.12353021472E-03  0.29356488934E-04  0.17130000000E+03  0.17130000000E+03 0. -1.
      622    1    1    2    0    0  0.33931643093E-03  0.27850544104E-03  0.39847037206E+01  0.39847139086E+01  0.90000000000E-02 0.  1.
</event>
<event>
 5   0  0.6135700E+09  0.9118800E+02  0.7818608E-02  0.1180000E+00
       11   -1    0    0    0    0  0.00000000000E+00  0.00000000000E+00  0.39999999673E+01  0.40000000000E+01  0.51109989000E-03 0.  1.
     -623   -1    0    0    0    0  0.00000000000E+00  0.00000000000E+00  0.12525980253E-10  0.17130000000E+03  0.17130000000E+03 0. -1.
       11    1    1    2    0    0 -0.38815206438E-02  0.56920758694E-02  0.77057676202E+00  0.77060772986E+00  0.51109989000E-03 0.  1.
     -623    1    1    2    0    0  0.29457134786E-03  0.35333706891E-03  0.51127490771E-04  0.17130000000E+03  0.17130000000E+03 0. -1.
      622    1    1    2    0    0  0.35869492960E-02 -0.60454129383E-02  0.32293720778E+01  0.32293922695E+01  0.90000000000E-02 0.  1.
</event>
<event>
 5   0  0.6135700E+09  0.9118800E+02  0.7818608E-02  0.1180000E+00
       11   -1    0    0    0    0  0.00000000000E+00  0.00000000000E+00  0.39999999673E+01  0.40000000000E+01  0.51109989000E-03 0. -1.
     -623   -1    0    0    0    0  0.00000000000E+00  0.00000000000E+00  0.12525980253E-10  0.17130000000E+03  0.17130000000E+03 0.  1.
       11    1    1    2    0    0 -0.51392889102E-02 -0.27561045460E-02  0.85088794950E+00  0.85090808683E+00  0.51109989000E-03 0. -1.
     -623    1    1    2    0    0 -0.32438061992E-03  0.26873396683E-03  0.38688193174E-04  0.17130000000E+03  0.17130000000E+03 0.  1.
      622    1    1    2    0    0  0.54636695301E-02  0.24873705792E-02  0.31490733297E+01  0.31490919127E+01  0.90000000000E-02 0.  0.
</event>
<event>
 5   0  0.6135700E+09  0.9118800E+02  0.7818608E-02  0.1180000E+00
       11   -1    0    0    0    0  0.00000000000E+00  0.00000000000E+00  0.39999999673E+01  0.40000000000E+01  0.51109989000E-03 0. -1.
     -623   -1    0    0    0    0  0.00000000000E+00  0.00000000000E+00  0.12525980253E-10  0.17130000000E+03  0.17130000000E+03 0. -1.
       11    1    1    2    0    0 -0.48473811221E-04 -0.21334083308E-04  0.55082780842E-01  0.55085177428E-01  0.51109989000E-03 0. -1.
     -623    1    1    2    0    0 -0.65956436743E-04 -0.81865500949E-05  0.12632124171E-04  0.17130000000E+03  0.17130000000E+03 0. -1.
      622    1    1    2    0    0  0.11443024796E-03  0.29520633403E-04  0.39449045544E+01  0.39449148226E+01  0.90000000000E-02 0. -1.
</event>
<event>
 5   0  0.6135700E+09  0.9118800E+02  0.7818608E-02  0.1180000E+00
       11   -1    0    0    0    0  0.00000000000E+00  0.00000000000E+00  0.39999999673E+01  0.40000000000E+01  0.51109989000E-03 0.  1.
     -623   -1    0    0    0    0  0.00000000000E+00  0.00000000000E+00  0.12525980253E-10  0.17130000000E+03  0.17130000000E+03 0. -1.
       11    1    1    2    0    0 -0.10528876104E-03  0.60766972391E-03  0.56532057395E+00  0.56532114139E+00  0.51109989000E-03 0.  1.
     -623    1    1    2    0    0 -0.26046034629E-03 -0.13694237048E-03  0.12378298846E-04  0.17130000000E+03  0.17130000000E+03 0. -1.
      622    1    1    2    0    0  0.36574910732E-03 -0.47072735343E-03  0.34346670151E+01  0.34346788584E+01  0.90000000000E-02 0.  1.
</event>
<event>
 5   0  0.6135700E+09  0.9118800E+02  0.7818608E-02  0.1180000E+00
       11   -1    0    0    0    0  0.00000000000E+00  0.00000000000E+00  0.39999999673E+01  0.40000000000E+01  0.51109989000E-03 0.  1.
     -623   -1    0    0    0    0  0.00000000000E+00  0.00000000000E+00  0.12525980253E-10  0.17130000000E+03  0.17130000000E+03 0.  1.
       11    1    1    2    0    0 -0.38125877572E-02  0.49182401240E-02  0.80019206852E-01  0.80262442006E-01  0.51109989000E-03 0.  1.
     -623    1    1    2    0    0  0.78593565826E-02  0.70984577901E-02  0.27437124468E-03  0.17130000033E+03  0.17130000000E+03 0.  1.
      622    1    1    2    0    0 -0.40467688254E-02 -0.12016697914E-01  0.39197063893E+01  0.39197372304E+01  0.90000000000E-02 0.  1.
</event>
<event>
 5   0  0.6135700E+09  0.9118800E+02  0.7818608E-02  0.1180000E+00
       11   -1    0    0    0    0  0.00000000000E+00  0.00000000000E+00  0.39999999673E+01  0.40000000000E+01  0.51109989000E-03 0. -1.
     -623   -1    0    0    0    0  0.00000000000E+00  0.00000000000E+00  0.12525980253E-10  0.17130000000E+03  0.17130000000E+03 0. -1.
       11    1    1    2    0    0 -0.34696668934E-03  0.30652614694E-03  0.63884942807E-01  0.63888664748E-01  0.51109989000E-03 0. -1.
     -623    1    1    2    0    0 -0.18583030471E-03  0.51287161547E-04  0.14031090604E-04  0.17130000000E+03  0.17130000000E+03 0. -1.
      622    1    1    2    0    0  0.53279699405E-03 -0.35781330849E-03  0.39361009935E+01  0.39361113351E+01  0.90000000000E-02 0. -1.
</event>
<event>
 5   0  0.6135700E+09  0.9118800E+02  0.7818608E-02  0.1180000E+00
       11   -1    0    0    0    0  0.00000000000E+00  0.00000000000E+00  0.39999999673E+01  0.40000000000E+01  0.51109989000E-03 0. -1.
     -623   -1    0    0    0    0  0.00000000000E+00  0.00000000000E+00  0.12525980253E-10  0.17130000000E+03  0.17130000000E+03 0.  1.
       11    1    1    2    0    0  0.11827486815E-02 -0.75168838727E-03  0.62226627227E-01  0.62244504086E-01  0.51109989000E-03 0. -1.
     -623    1    1    2    0    0  0.93386304264E-04 -0.12847707931E-03  0.28434506326E-04  0.17130000000E+03  0.17130000000E+03 0.  1.
      622    1    1    2    0    0 -0.12761349858E-02  0.88016546657E-03  0.39377449056E+01  0.39377554958E+01  0.90000000000E-02 0. -1.
</event>
<event>
 5   0  0.6135700E+09  0.9118800E+02  0.7818608E-02  0.1180000E+00
       11   -1    0    0    0    0  0.00000000000E+00  0.00000000000E+00  0.39999999673E+01  0.40000000000E+01  0.51109989000E-03 0.  1.
     -623   -1    0    0    0    0  0.00000000000E+00  0.00000000000E+00  0.12525980253E-10  0.17130000000E+03  0.17130000000E+03 0.  1.
       11    1    1    2    0    0  0.52051291684E-04 -0.59338734363E-03  0.32908753696E-01  0.32918112199E-01  0.51109989000E-03 0.  1.
     -623    1    1    2    0    0  0.55213581033E-03  0.64503128647E-03  0.19583342692E-04  0.17130000000E+03  0.17130000000E+03 0.  1.
      622    1    1    2    0    0 -0.60418710280E-03 -0.51643943756E-04  0.39670716360E+01  0.39670818914E+01  0.90000000000E-02 0.  1.
</event>
<event>
 5   0  0.6135700E+09  0.9118800E+02  0.7818608E-02  0.1180000E+00
       11   -1    0    0    0    0  0.00000000000E+00  0.00000000000E+00  0.39999999673E+01  0.40000000000E+01  0.51109989000E-03 0.  1.
     -623   -1    0    0    0    0  0.00000000000E+00  0.00000000000E+00  0.12525980253E-10  0.17130000000E+03  0.17130000000E+03 0.  1.
       11    1    1    2    0    0 -0.76888816588E-02  0.25337847950E-02  0.29201808361E+00  0.29213072646E+00  0.51109989000E-03 0.  1.
     -623    1    1    2    0    0  0.17498684503E-02  0.43555601962E-04  0.12919406635E-03  0.17130000001E+03  0.17130000000E+03 0.  1.
      622    1    1    2    0    0  0.59390132085E-02 -0.25773403970E-02  0.37078526897E+01  0.37078692645E+01  0.90000000000E-02 0.  1.
</event>
<event>
 5   0  0.6135700E+09  0.9118800E+02  0.7818608E-02  0.1180000E+00
       11   -1    0    0    0    0  0.00000000000E+00  0.00000000000E+00  0.39999999673E+01  0.40000000000E+01  0.51109989000E-03 0.  1.
     -623   -1    0    0    0    0  0.00000000000E+00  0.00000000000E+00  0.12525980253E-10  0.17130000000E+03  0.17130000000E+03 0.  1.
       11    1    1    2    0    0  0.10580262460E-02  0.13067670486E-02  0.37363413549E+00  0.37363826823E+00  0.51109989000E-03 0.  1.
     -623    1    1    2    0    0  0.17575642674E-02 -0.14975851905E-02  0.16381967054E-04  0.17130000002E+03  0.17130000000E+03 0.  1.
      622    1    1    2    0    0 -0.28155905135E-02  0.19081814189E-03  0.36263494499E+01  0.36263617162E+01  0.90000000000E-02 0.  1.
</event>
<event>
 5   0  0.6135700E+09  0.9118800E+02  0.7818608E-02  0.1180000E+00
       11   -1    0    0    0    0  0.00000000000E+00  0.00000000000E+00  0.39999999673E+01  0.40000000000E+01  0.51109989000E-03 0.  1.
     -623   -1    0    0    0    0  0.00000000000E+00  0.00000000000E+00  0.12525980253E-10  0.17130000000E+03  0.17130000000E+03 0.  1.
       11    1    1    2    0    0  0.62396552944E-04 -0.84658327713E-04  0.78819371412E-01  0.78821098641E-01  0.51109989000E-03 0.  1.
     -623    1    1    2    0    0 -0.22807429566E-03 -0.22648643700E-03  0.12039275995E-04  0.17130000000E+03  0.17130000000E+03 0.  1.
      622    1    1    2    0    0  0.16567774271E-03  0.31114476471E-03  0.39211685567E+01  0.39211789011E+01  0.90000000000E-02 0.  1.
</event>
<event>
 5   0  0.6135700E+09  0.9118800E+02  0.7818608E-02  0.1180000E+00
       11   -1    0    0    0    0  0.00000000000E+00  0.00000000000E+00  0.39999999673E+01  0.40000000000E+01  0.51109989000E-03 0.  1.
     -623   -1    0    0    0    0  0.00000000000E+00  0.00000000000E+00  0.12525980253E-10  0.17130000000E+03  0.17130000000E+03 0.  1.
       11    1    1    2    0    0  0.55894840328E-03  0.17195917280E-02  0.92001686301E-01  0.92020872220E-01  0.51109989000E-03 0.  1.
     -623    1    1    2    0    0 -0.32543214509E-03 -0.15377917628E-03  0.29837750672E-04  0.17130000000E+03  0.17130000000E+03 0.  1.
      622    1    1    2    0    0 -0.23351625820E-03 -0.15658125517E-02  0.39079684433E+01  0.39079791274E+01  0.90000000000E-02 0.  1.
</event>
<event>
 5   0  0.6135700E+09  0.9118800E+02  0.7818608E-02  0.1180000E+00
       11   -1    0    0    0    0  0.00000000000E+00  0.00000000000E+00  0.39999999673E+01  0.40000000000E+01  0.51109989000E-03 0.  1.
     -623   -1    0    0    0    0  0.00000000000E+00  0.00000000000E+00  0.12525980253E-10  0.17130000000E+03  0.17130000000E+03 0. -1.
       11    1    1    2    0    0  0.29343750128E-03  0.11188631178E-02  0.14923405854E+00  0.14923941641E+00  0.51109989000E-03 0.  1.
     -623    1    1    2    0    0  0.17585973615E-04  0.59372616680E-05  0.16019485161E-04  0.17130000000E+03  0.17130000000E+03 0. -1.
      622    1    1    2    0    0 -0.31102347489E-03 -0.11248003795E-02  0.38507498893E+01  0.38507605836E+01  0.90000000000E-02 0.  1.
</event>
<event>
 5   0  0.6135700E+09  0.9118800E+02  0.7818608E-02  0.1180000E+00
       11   -1    0    0    0    0  0.00000000000E+00  0.00000000000E+00  0.39999999673E+01  0.40000000000E+01  0.51109989000E-03 0.  1.
     -623   -1    0    0    0    0  0.00000000000E+00  0.00000000000E+00  0.12525980253E-10  0.17130000000E+03  0.17130000000E+03 0. -1.
       11    1    1    2    0    0  0.20850236600E-02 -0.80884342633E-03  0.29070931255E+00  0.29071836402E+00  0.51109989000E-03 0.  1.
     -623    1    1    2    0    0 -0.57266816443E-03 -0.22417353006E-03  0.20390662734E-04  0.17130000000E+03  0.17130000000E+03 0. -1.
      622    1    1    2    0    0 -0.15123554949E-02  0.10330169566E-02  0.37092702686E+01  0.37092816393E+01  0.90000000000E-02 0.  1.
</event>
<event>
 5   0  0.6135700E+09  0.9118800E+02  0.7818608E-02  0.1180000E+00
       11   -1    0    0    0    0  0.00000000000E+00  0.00000000000E+00  0.39999999673E+01  0.40000000000E+01  0.51109989000E-03 0.  1.
     -623   -1    0    0    0    0  0.00000000000E+00  0.00000000000E+00  0.12525980253E-10  0.17130000000E+03  0.17130000000E+03 0. -1.
       11    1    1    2    0    0  0.22037965096E-04 -0.24718279965E-02  0.65647835253E-01  0.65696346268E-01  0.51109989000E-03 0.  1.
     -623    1    1    2    0    0  0.26878490230E-03 -0.29758924458E-03  0.59758408349E-04  0.17130000000E+03  0.17130000000E+03 0. -1.
      622    1    1    2    0    0 -0.29082286740E-03  0.27694172410E-02  0.39342923737E+01  0.39343036533E+01  0.90000000000E-02 0.  1.
</event>
<event>
 5   0  0.6135700E+09  0.9118800E+02  0.7818608E-02  0.1180000E+00
       11   -1    0    0    0    0  0.00000000000E+00  0.00000000000E+00  0.39999999673E+01  0.40000000000E+01  0.51109989000E-03 0.  1.
     -623   -1    0    0    0    0  0.00000000000E+00  0.00000000000E+00  0.12525980253E-10  0.17130000000E+03  0.17130000000E+03 0.  1.
       11    1    1    2    0    0  0.23172138662E-03 -0.97868724246E-03  0.39424819680E-01  0.39440957816E-01  0.51109989000E-03 0.  1.
     -623    1    1    2    0    0 -0.22176370469E-03  0.14623644624E-02  0.26367272208E-04  0.17130000001E+03  0.17130000000E+03 0.  1.
      622    1    1    2    0    0 -0.99576817276E-05 -0.48367722121E-03  0.39605487840E+01  0.39605590394E+01  0.90000000000E-02 0.  1.
</event>
<event>
 5   0  0.6135700E+09  0.9118800E+02  0.7818608E-02  0.1180000E+00
       11   -1    0    0    0    0  0.00000000000E+00  0.00000000000E+00  0.39999999673E+01  0.40000000000E+01  0.51109989000E-03 0. -1.
     -623   -1    0    0    0    0  0.00000000000E+00  0.00000000000E+00  0.12525980253E-10  0.17130000000E+03  0.17130000000E+03 0. -1.
       11    1    1    2    0    0 -0.25342049347E-02  0.10220542128E-02  0.90717702502E+00  0.90718128438E+00  0.51109989000E-03 0. -1.
     -623    1    1    2    0    0 -0.13269525765E-04 -0.24674877984E-03  0.18468107645E-04  0.17130000000E+03  0.17130000000E+03 0. -1.
      622    1    1    2    0    0  0.25474744604E-02 -0.77530543299E-03  0.30928044731E+01  0.30928187143E+01  0.90000000000E-02 0. -1.
</event>
<event>
 5   0  0.6135700E+09  0.9118800E+02  0.7818608E-02  0.1180000E+00
       11   -1    0    0    0    0  0.00000000000E+00  0.00000000000E+00  0.39999999673E+01  0.40000000000E+01  0.51109989000E-03 0. -1.
     -623   -1    0    0    0    0  0.00000000000E+00  0.00000000000E+00  0.12525980253E-10  0.17130000000E+03  0.17130000000E+03 0.  1.
       11    1    1    2    0    0 -0.34009402152E-03  0.14205972165E-02  0.11245130634E-01  0.11351120935E-01  0.51109989000E-03 0.  1.
     -623    1    1    2    0    0  0.42231323109E-03  0.61813614626E-03  0.11663504455E-03  0.17130000000E+03  0.17130000000E+03 0.  1.
      622    1    1    2    0    0 -0.82219209901E-04 -0.20387333633E-02  0.39886382049E+01  0.39886488806E+01  0.90000000000E-02 0. -1.
</event>
<event>
 5   0  0.6135700E+09  0.9118800E+02  0.7818608E-02  0.1180000E+00
       11   -1    0    0    0    0  0.00000000000E+00  0.00000000000E+00  0.39999999673E+01  0.40000000000E+01  0.51109989000E-03 0.  1.
     -623   -1    0    0    0    0  0.00000000000E+00  0.00000000000E+00  0.12525980253E-10  0.17130000000E+03  0.17130000000E+03 0. -1.
       11    1    1    2    0    0 -0.17865014805E-01 -0.14201781384E-02  0.10338900101E+01  0.10340454486E+01  0.51109989000E-03 0.  1.
     -623    1    1    2    0    0  0.27743717657E-01 -0.31680030731E-02  0.19133750691E-03  0.17130000228E+03  0.17130000000E+03 0. -1.
      622    1    1    2    0    0 -0.98787028524E-02  0.45881812114E-02  0.29659186198E+01  0.29659522753E+01  0.90000000000E-02 0.  1.
</event>
<event>
 5   0  0.6135700E+09  0.9118800E+02  0.7818608E-02  0.1180000E+00
       11   -1    0    0    0    0  0.00000000000E+00  0.00000000000E+00  0.39999999673E+01  0.40000000000E+01  0.51109989000E-03 0. -1.
     -623   -1    0    0    0    0  0.00000000000E+00  0.00000000000E+00  0.12525980253E-10  0.17130000000E+03  0.17130000000E+03 0. -1.
       11    1    1    2    0    0  0.44996348203E-03 -0.76245260882E-03  0.16160472551E-02  0.19122324504E-02  0.51109989000E-03 0. -1.
     -623    1    1    2    0    0 -0.11651439383E-02  0.31823755112E-03  0.30637558657E-03  0.17130000000E+03  0.17130000000E+03 0. -1.
      622    1    1    2    0    0  0.71518045638E-03  0.44421505768E-03  0.39980775448E+01  0.39980877633E+01  0.90000000000E-02 0. -1.
</event>
<event>
 5   0  0.6135700E+09  0.9118800E+02  0.7818608E-02  0.1180000E+00
       11   -1    0    0    0    0  0.00000000000E+00  0.00000000000E+00  0.39999999673E+01  0.40000000000E+01  0.51109989000E-03 0.  1.
     -623   -1    0    0    0    0  0.00000000000E+00  0.00000000000E+00  0.12525980253E-10  0.17130000000E+03  0.17130000000E+03 0. -1.
       11    1    1    2    0    0  0.70385730368E-03  0.59062280094E-03  0.30431326020E-01  0.30449484020E-01  0.51109989000E-03 0.  1.
     -623    1    1    2    0    0 -0.35600043812E-03  0.13867037066E-03  0.28410702228E-04  0.17130000000E+03  0.17130000000E+03 0. -1.
      622    1    1    2    0    0 -0.34785686556E-03 -0.72929317160E-03  0.39695402306E+01  0.39695505156E+01  0.90000000000E-02 0.  1.
</event>
<event>
 5   0  0.6135700E+09  0.9118800E+02  0.7818608E-02  0.1180000E+00
       11   -1    0    0    0    0  0.00000000000E+00  0.00000000000E+00  0.39999999673E+01  0.40000000000E+01  0.51109989000E-03 0.  1.
     -623   -1    0    0    0    0  0.00000000000E+00  0.00000000000E+00  0.12525980253E-10  0.17130000000E+03  0.17130000000E+03 0. -1.
       11    1    1    2    0    0 -0.42657250530E-02  0.51807886290E-02  0.89136044393E+00  0.89138585316E+00  0.51109989000E-03 0.  1.
     -623    1    1    2    0    0  0.12275484993E-01 -0.13637970364E-02  0.51512785280E-04  0.17130000045E+03  0.17130000000E+03 0. -1.
      622    1    1    2    0    0 -0.80097599399E-02 -0.38169915926E-02  0.31085880106E+01  0.31086137016E+01  0.90000000000E-02 0.  1.
</event>
<event>
 5   0  0.6135700E+09  0.9118800E+02  0.7818608E-02  0.1180000E+00
       11   -1    0    0    0    0  0.00000000000E+00  0.00000000000E+00  0.39999999673E+01  0.40000000000E+01  0.51109989000E-03 0. -1.
     -623   -1    0    0    0    0  0.00000000000E+00  0.00000000000E+00  0.12525980253E-10  0.17130000000E+03  0.17130000000E+03 0.  1.
       11    1    1    2    0    0 -0.14105586448E-02 -0.13318418407E-02  0.87338697462E+00  0.87338927870E+00  0.51109989000E-03 0. -1.
     -623    1    1    2    0    0 -0.35720995863E-02 -0.24408359380E-03  0.19629641152E-04  0.17130000004E+03  0.17130000000E+03 0.  1.
      622    1    1    2    0    0  0.49826582586E-02  0.15759254364E-02  0.31265933939E+01  0.31266107146E+01  0.90000000000E-02 0.  0.
</event>
<event>
 5   0  0.6135700E+09  0.9118800E+02  0.7818608E-02  0.1180000E+00
       11   -1    0    0    0    0  0.00000000000E+00  0.00000000000E+00  0.39999999673E+01  0.40000000000E+01  0.51109989000E-03 0.  1.
     -623   -1    0    0    0    0  0.00000000000E+00  0.00000000000E+00  0.12525980253E-10  0.17130000000E+03  0.17130000000E+03 0. -1.
       11    1    1    2    0    0  0.87793565156E-03 -0.91668627089E-03  0.55753028890E+00  0.55753196800E+00  0.51109989000E-03 0.  1.
     -623    1    1    2    0    0 -0.18357260770E-02 -0.15416909482E-02  0.14439122157E-04  0.17130000002E+03  0.17130000000E+03 0. -1.
      622    1    1    2    0    0  0.95779042546E-03  0.24583772190E-02  0.34424552393E+01  0.34424680152E+01  0.90000000000E-02 0.  1.
</event>
<event>
 5   0  0.6135700E+09  0.9118800E+02  0.7818608E-02  0.1180000E+00
       11   -1    0    0    0    0  0.00000000000E+00  0.00000000000E+00  0.39999999673E+01  0.40000000000E+01  0.51109989000E-03 0.  1.
     -623   -1    0    0    0    0  0.00000000000E+00  0.00000000000E+00  0.12525980253E-10  0.17130000000E+03  0.17130000000E+03 0. -1.
       11    1    1    2    0    0 -0.32819110143E-03 -0.27632349722E-03  0.35145106025E+00  0.35145169375E+00  0.51109989000E-03 0.  1.
     -623    1    1    2    0    0 -0.12061484985E-03 -0.11314852053E-02  0.12004167504E-04  0.17130000000E+03  0.17130000000E+03 0. -1.
      622    1    1    2    0    0  0.44880595128E-03  0.14078087025E-02  0.36485369029E+01  0.36485483025E+01  0.90000000000E-02 0.  1.
</event>
<event>
 5   0  0.6135700E+09  0.9118800E+02  0.7818608E-02  0.1180000E+00
       11   -1    0    0    0    0  0.00000000000E+00  0.00000000000E+00  0.39999999673E+01  0.40000000000E+01  0.51109989000E-03 0. -1.
     -623   -1    0    0    0    0  0.00000000000E+00  0.00000000000E+00  0.12525980253E-10  0.17130000000E+03  0.17130000000E+03 0. -1.
       11    1    1    2    0    0 -0.16930730908E-02 -0.10969480514E-02  0.48685949061E-02  0.52947361573E-02  0.51109989000E-03 0. -1.
     -623    1    1    2    0    0  0.96573375758E-03  0.12908203941E-02  0.43632610565E-03  0.17130000001E+03  0.17130000000E+03 0. -1.
      622    1    1    2    0    0  0.72733933331E-03 -0.19387234259E-03  0.39946950459E+01  0.39947052553E+01  0.90000000000E-02 0. -1.
</event>
<event>
 5   0  0.6135700E+09  0.9118800E+02  0.7818608E-02  0.1180000E+00
       11   -1    0    0    0    0  0.00000000000E+00  0.00000000000E+00  0.39999999673E+01  0.40000000000E+01  0.51109989000E-03 0. -1.
     -623   -1    0    0    0    0  0.00000000000E+00  0.00000000000E+00  0.12525980253E-10  0.17130000000E+03  0.17130000000E+03 0.  1.
       11    1    1    2    0    0  0.80977278555E-03  0.36357269615E-03  0.60541933607E-01  0.60550597561E-01  0.51109989000E-03 0. -1.
     -623    1    1    2    0    0  0.11687554680E-04  0.31427976476E-04  0.19017405843E-04  0.17130000000E+03  0.17130000000E+03 0.  1.
      622    1    1    2    0    0 -0.82146034024E-03 -0.39500067266E-03  0.39394390207E+01  0.39394494068E+01  0.90000000000E-02 0. -1.
</event>
<event>
 5   0  0.6135700E+09  0.9118800E+02  0.7818608E-02  0.1180000E+00
       11   -1    0    0    0    0  0.00000000000E+00  0.00000000000E+00  0.39999999673E+01  0.40000000000E+01  0.51109989000E-03 0. -1.
     -623   -1    0    0    0    0  0.00000000000E+00  0.00000000000E+00  0.12525980253E-10  0.17130000000E+03  0.17130000000E+03 0. -1.
       11    1    1    2    0    0  0.16589488370E-02  0.16062561435E-02  0.27851408495E-01  0.27951643033E-01  0.51109989000E-03 0. -1.
     -623    1    1    2    0    0 -0.10292283744E-02  0.45878586389E-02  0.11534229484E-03  0.17130000006E+03  0.17130000000E+03 0. -1.
      622    1    1    2    0    0 -0.62972046213E-03 -0.61941147847E-02  0.39720332185E+01  0.39720482944E+01  0.90000000000E-02 0. -1.
</event>
<event>
 5   0  0.6135700E+09  0.9118800E+02  0.7818608E-02  0.1180000E+00
       11   -1    0    0    0    0  0.00000000000E+00  0.00000000000E+00  0.39999999673E+01  0.40000000000E+01  0.51109989000E-03 0.  1.
     -623   -1    0    0    0    0  0.00000000000E+00  0.00000000000E+00  0.12525980253E-10  0.17130000000E+03  0.17130000000E+03 0. -1.
       11    1    1    2    0    0  0.11816926483E-02  0.15914210586E-02  0.83708351790E+00  0.83708602077E+00  0.51109989000E-03 0.  1.
     -623    1    1    2    0    0 -0.11044457902E-03 -0.11993494486E-03  0.15798692281E-04  0.17130000000E+03  0.17130000000E+03 0. -1.
      622    1    1    2    0    0 -0.10712480693E-02 -0.14714861138E-02  0.31629006508E+01  0.31629139791E+01  0.90000000000E-02 0.  1.
</event>
<event>
 5   0  0.6135700E+09  0.9118800E+02  0.7818608E-02  0.1180000E+00
       11   -1    0    0    0    0  0.00000000000E+00  0.00000000000E+00  0.39999999673E+01  0.40000000000E+01  0.51109989000E-03 0.  1.
     -623   -1    0    0    0    0  0.00000000000E+00  0.00000000000E+00  0.12525980253E-10  0.17130000000E+03  0.17130000000E+03 0.  1.
       11    1    1    2    0    0  0.70211641884E-03  0.75432000779E-03  0.70503415515E-01  0.70512798757E-01  0.51109989000E-03 0.  1.
     -623    1    1    2    0    0 -0.20817322411E-03  0.29497477394E-03  0.19828827517E-04  0.17130000000E+03  0.17130000000E+03 0.  1.
      622    1    1    2    0    0 -0.49394319500E-03 -0.10492947813E-02  0.39294767178E+01  0.39294871957E+01  0.90000000000E-02 0.  1.
</event>
<event>
 5   0  0.6135700E+09  0.9118800E+02  0.7818608E-02  0.1180000E+00
       11   -1    0    0    0    0  0.00000000000E+00  0.00000000000E+00  0.39999999673E+01  0.40000000000E+01  0.51109989000E-03 0. -1.
     -623   -1    0    0    0    0  0.00000000000E+00  0.00000000000E+00  0.12525980253E-10  0.17130000000E+03  0.17130000000E+03 0.  1.
       11    1    1    2    0    0 -0.63537500283E-04 -0.12956925921E-02  0.59961576693E+00  0.59961738803E+00  0.51109989000E-03 0. -1.
     -623    1    1    2    0    0 -0.28103196053E-03  0.10039166835E-03  0.13726711570E-04  0.17130000000E+03  0.17130000000E+03 0.  1.
      622    1    1    2    0    0  0.34456946082E-03  0.11953009237E-02  0.34003704737E+01  0.34003826117E+01  0.90000000000E-02 0. -1.
</event>
<event>
 5   0  0.6135700E+09  0.9118800E+02  0.7818608E-02  0.1180000E+00
       11   -1    0    0    0    0  0.00000000000E+00  0.00000000000E+00  0.39999999673E+01  0.40000000000E+01  0.51109989000E-03 0.  1.
     -623   -1    0    0    0    0  0.00000000000E+00  0.00000000000E+00  0.12525980253E-10  0.17130000000E+03  0.17130000000E+03 0.  1.
       11    1    1    2    0    0  0.13851240167E-02  0.65808292607E-03  0.38388349353E+00  0.38388689671E+00  0.51109989000E-03 0.  1.
     -623    1    1    2    0    0  0.16627835518E-03 -0.40587650636E-03  0.14912586731E-04  0.17130000000E+03  0.17130000000E+03 0.  1.
      622    1    1    2    0    0 -0.15514023719E-02 -0.25220641971E-03  0.36161015612E+01  0.36161131027E+01  0.90000000000E-02 0.  0.
</event>
<event>
 5   0  0.6135700E+09  0.9118800E+02  0.7818608E-02  0.1180000E+00
       11   -1    0    0    0    0  0.00000000000E+00  0.00000000000E+00  0.39999999673E+01  0.40000000000E+01  0.51109989000E-03 0. -1.
     -623   -1    0    0    0    0  0.00000000000E+00  0.00000000000E+00  0.12525980253E-10  0.17130000000E+03  0.17130000000E+03 0.  1.
       11    1    1    2    0    0  0.12891565392E-02  0.35401380952E-03  0.76849349079E-01  0.76862675775E-01  0.51109989000E-03 0. -1.
     -623    1    1    2    0    0 -0.67738795191E-02 -0.27989142866E-02  0.28370033195E-04  0.17130000016E+03  0.17130000000E+03 0.  1.
      622    1    1    2    0    0  0.54847230293E-02  0.24449004975E-02  0.39231222774E+01  0.39231371966E+01  0.90000000000E-02 0. -1.
</event>
<event>
 5   0  0.6135700E+09  0.9118800E+02  0.7818608E-02  0.1180000E+00
       11   -1    0    0    0    0  0.00000000000E+00  0.00000000000E+00  0.39999999673E+01  0.40000000000E+01  0.51109989000E-03 0. -1.
     -623   -1    0    0    0    0  0.00000000000E+00  0.00000000000E+00  0.12525980253E-10  0.17130000000E+03  0.17130000000E+03 0. -1.
       11    1    1    2    0    0 -0.11258702344E-02 -0.46185522412E-02  0.74832968245E-01  0.74985551729E-01  0.51109989000E-03 0.  1.
     -623    1    1    2    0    0  0.49205006765E-03  0.12634498193E-02  0.16435988573E-03  0.17130000001E+03  0.17130000000E+03 0. -1.
      622    1    1    2    0    0  0.63382016682E-03  0.33551024221E-02  0.39250026386E+01  0.39250144422E+01  0.90000000000E-02 0. -1.
</event>
<event>
 5   0  0.6135700E+09  0.9118800E+02  0.7818608E-02  0.1180000E+00
       11   -1    0    0    0    0  0.00000000000E+00  0.00000000000E+00  0.39999999673E+01  0.40000000000E+01  0.51109989000E-03 0. -1.
     -623   -1    0    0    0    0  0.00000000000E+00  0.00000000000E+00  0.12525980253E-10  0.17130000000E+03  0.17130000000E+03 0.  1.
       11    1    1    2    0    0 -0.25353058283E-02  0.25711796845E-03  0.16445364350E-01  0.16649477888E-01  0.51109989000E-03 0. -1.
     -623    1    1    2    0    0  0.67316871278E-03  0.27305589449E-03  0.21472044606E-03  0.17130000000E+03  0.17130000000E+03 0.  1.
      622    1    1    2    0    0  0.18621371155E-02 -0.53017386294E-03  0.39833398826E+01  0.39833505204E+01  0.90000000000E-02 0. -1.
</event>
<event>
 5   0  0.6135700E+09  0.9118800E+02  0.7818608E-02  0.1180000E+00
       11   -1    0    0    0    0  0.00000000000E+00  0.00000000000E+00  0.39999999673E+01  0.40000000000E+01  0.51109989000E-03 0.  1.
     -623   -1    0    0    0    0  0.00000000000E+00  0.00000000000E+00  0.12525980253E-10  0.17130000000E+03  0.17130000000E+03 0.  1.
       11    1    1    2    0    0  0.28449749403E-03 -0.12705571366E-02  0.37007379935E-01  0.37033804112E-01  0.51109989000E-03 0.  1.
     -623    1    1    2    0    0 -0.82110619906E-03 -0.18748552915E-03  0.36917792631E-04  0.17130000000E+03  0.17130000000E+03 0.  1.
      622    1    1    2    0    0  0.53660870488E-03  0.14580426657E-02  0.39629556689E+01  0.39629661931E+01  0.90000000000E-02 0.  1.
</event>
<event>
 5   0  0.6135700E+09  0.9118800E+02  0.7818608E-02  0.1180000E+00
       11   -1    0    0    0    0  0.00000000000E+00  0.00000000000E+00  0.39999999673E+01  0.40000000000E+01  0.51109989000E-03 0.  1.
     -623   -1    0    0    0    0  0.00000000000E+00  0.00000000000E+00  0.12525980253E-10  0.17130000000E+03  0.17130000000E+03 0.  1.
       11    1    1    2    0    0 -0.23927304086E-02 -0.18956051605E-02  0.39303453033E+00  0.39304671698E+00  0.51109989000E-03 0.  1.
     -623    1    1    2    0    0  0.72399945999E-03 -0.61459598335E-03  0.24644463880E-04  0.17130000000E+03  0.17130000000E+03 0.  1.
      622    1    1    2    0    0  0.16687309509E-02  0.25102011419E-02  0.36069407801E+01  0.36069532679E+01  0.90000000000E-02 0.  1.
</event>
<event>
 5   0  0.6135700E+09  0.9118800E+02  0.7818608E-02  0.1180000E+00
       11   -1    0    0    0    0  0.00000000000E+00  0.00000000000E+00  0.39999999673E+01  0.40000000000E+01  0.51109989000E-03 0. -1.
     -623   -1    0    0    0    0  0.00000000000E+00  0.00000000000E+00  0.12525980253E-10  0.17130000000E+03  0.17130000000E+03 0.  1.
       11    1    1    2    0    0 -0.82454254708E-03 -0.13278020856E-02  0.64537177183E+00  0.64537386686E+00  0.51109989000E-03 0. -1.
     -623    1    1    2    0    0  0.14165416781E-02  0.31878165579E-03  0.14345432052E-04  0.17130000001E+03  0.17130000000E+03 0.  1.
      622    1    1    2    0    0 -0.59199913100E-03  0.10090204298E-02  0.33546138501E+01  0.33546261270E+01  0.90000000000E-02 0. -1.
</event>
<event>
 5   0  0.6135700E+09  0.9118800E+02  0.7818608E-02  0.1180000E+00
       11   -1    0    0    0    0  0.00000000000E+00  0.00000000000E+00  0.39999999673E+01  0.40000000000E+01  0.51109989000E-03 0.  1.
     -623   -1    0    0    0    0  0.00000000000E+00  0.00000000000E+00  0.12525980253E-10  0.17130000000E+03  0.17130000000E+03 0.  1.
       11    1    1    2    0    0  0.11398060119E-01  0.17556870762E-02  0.11999399666E+01  0.11999954928E+01  0.51109989000E-03 0.  1.
     -623    1    1    2    0    0 -0.11734858165E-01 -0.91990255154E-03  0.70507345331E-04  0.17130000040E+03  0.17130000000E+03 0.  1.
      622    1    1    2    0    0  0.33679804530E-03 -0.83578452464E-03  0.27999894934E+01  0.28000041027E+01  0.90000000000E-02 0.  0.
</event>
<event>
 5   0  0.6135700E+09  0.9118800E+02  0.7818608E-02  0.1180000E+00
       11   -1    0    0    0    0  0.00000000000E+00  0.00000000000E+00  0.39999999673E+01  0.40000000000E+01  0.51109989000E-03 0.  1.
     -623   -1    0    0    0    0  0.00000000000E+00  0.00000000000E+00  0.12525980253E-10  0.17130000000E+03  0.17130000000E+03 0. -1.
       11    1    1    2    0    0  0.49975245626E-04  0.18242468991E-03  0.54005852824E-01  0.54008602450E-01  0.51109989000E-03 0.  1.
     -623    1    1    2    0    0  0.10078820455E-04  0.31954068070E-04  0.12986863989E-04  0.17130000000E+03  0.17130000000E+03 0. -1.
      622    1    1    2    0    0 -0.60054066150E-04 -0.21437875820E-03  0.39459811550E+01  0.39459914248E+01  0.90000000000E-02 0.  1.
</event>
<event>
 5   0  0.6135700E+09  0.9118800E+02  0.7818608E-02  0.1180000E+00
       11   -1    0    0    0    0  0.00000000000E+00  0.00000000000E+00  0.39999999673E+01  0.40000000000E+01  0.51109989000E-03 0.  1.
     -623   -1    0    0    0    0  0.00000000000E+00  0.00000000000E+00  0.12525980253E-10  0.17130000000E+03  0.17130000000E+03 0.  1.
       11    1    1    2    0    0 -0.21427091808E-02  0.15771657239E-01  0.84786910723E+00  0.84801864401E+00  0.51109989000E-03 0.  1.
     -623    1    1    2    0    0  0.74652993503E-03  0.39116945602E-03  0.20410521048E-03  0.17130000000E+03  0.17130000000E+03 0.  1.
      622    1    1    2    0    0  0.13961792457E-02 -0.16162826695E-01  0.31519267549E+01  0.31519813538E+01  0.90000000000E-02 0.  1.
</event>
<event>
 5   0  0.6135700E+09  0.9118800E+02  0.7818608E-02  0.1180000E+00
       11   -1    0    0    0    0  0.00000000000E+00  0.00000000000E+00  0.39999999673E+01  0.40000000000E+01  0.51109989000E-03 0.  1.
     -623   -1    0    0    0    0  0.00000000000E+00  0.00000000000E+00  0.12525980253E-10  0.17130000000E+03  0.17130000000E+03 0. -1.
       11    1    1    2    0    0 -0.53225439049E-02  0.13863872749E-02  0.15425152708E+00  0.15435040127E+00  0.51109989000E-03 0.  1.
     -623    1    1    2    0    0  0.47615444840E-02 -0.27947073392E-02  0.10976074411E-03  0.17130000009E+03  0.17130000000E+03 0. -1.
      622    1    1    2    0    0  0.56099942087E-03  0.14083200643E-02  0.38456386795E+01  0.38456495097E+01  0.90000000000E-02 0.  1.
</event>
<event>
 5   0  0.6135700E+09  0.9118800E+02  0.7818608E-02  0.1180000E+00
       11   -1    0    0    0    0  0.00000000000E+00  0.00000000000E+00  0.39999999673E+01  0.40000000000E+01  0.51109989000E-03 0. -1.
     -623   -1    0    0    0    0  0.00000000000E+00  0.00000000000E+00  0.12525980253E-10  0.17130000000E+03  0.17130000000E+03 0.  1.
       11    1    1    2    0    0 -0.59950134849E-03 -0.68855657375E-03  0.98599616142E-01  0.98605167401E-01  0.51109989000E-03 0. -1.
     -623    1    1    2    0    0 -0.84749910921E-04  0.11459155818E-03  0.16001819382E-04  0.17130000000E+03  0.17130000000E+03 0.  1.
      622    1    1    2    0    0  0.68425125941E-03  0.57396501557E-03  0.39013843494E+01  0.39013948325E+01  0.90000000000E-02 0. -1.
</event>
<event>
 5   0  0.6135700E+09  0.9118800E+02  0.7818608E-02  0.1180000E+00
       11   -1    0    0    0    0  0.00000000000E+00  0.00000000000E+00  0.39999999673E+01  0.40000000000E+01  0.51109989000E-03 0.  1.
     -623   -1    0    0    0    0  0.00000000000E+00  0.00000000000E+00  0.12525980253E-10  0.17130000000E+03  0.17130000000E+03 0. -1.
       11    1    1    2    0    0  0.36772077986E-02  0.21588008300E-02  0.69519503186E+00  0.69520829671E+00  0.51109989000E-03 0.  1.
     -623    1    1    2    0    0 -0.10318336143E-02 -0.30927803968E-03  0.27066875163E-04  0.17130000000E+03  0.17130000000E+03 0. -1.
      622    1    1    2    0    0 -0.26453741843E-02 -0.18495227903E-02  0.33047778686E+01  0.33047916999E+01  0.90000000000E-02 0.  0.
</event>
<event>
 5   0  0.6135700E+09  0.9118800E+02  0.7818608E-02  0.1180000E+00
       11   -1    0    0    0    0  0.00000000000E+00  0.00000000000E+00  0.39999999673E+01  0.40000000000E+01  0.51109989000E-03 0. -1.
     -623   -1    0    0    0    0  0.00000000000E+00  0.00000000000E+00  0.12525980253E-10  0.17130000000E+03  0.17130000000E+03 0. -1.
       11    1    1    2    0    0 -0.14264958407E-02  0.14884048082E-02  0.33428471547E-01  0.33495882916E-01  0.51109989000E-03 0. -1.
     -623    1    1    2    0    0  0.20418010799E-02 -0.10357265959E-02  0.77678117743E-04  0.17130000002E+03  0.17130000000E+03 0. -1.
      622    1    1    2    0    0 -0.61530523927E-03 -0.45267821226E-03  0.39664938179E+01  0.39665041019E+01  0.90000000000E-02 0. -1.
</event>
<event>
 5   0  0.6135700E+09  0.9118800E+02  0.7818608E-02  0.1180000E+00
       11   -1    0    0    0    0  0.00000000000E+00  0.00000000000E+00  0.39999999673E+01  0.40000000000E+01  0.51109989000E-03 0. -1.
     -623   -1    0    0    0    0  0.00000000000E+00  0.00000000000E+00  0.12525980253E-10  0.17130000000E+03  0.17130000000E+03 0. -1.
       11    1    1    2    0    0  0.48759187182E-03  0.60520155862E-03  0.13987556346E+00  0.13987865631E+00  0.51109989000E-03 0. -1.
     -623    1    1    2    0    0 -0.96983943294E-04 -0.62467186876E-03  0.13573101456E-04  0.17130000000E+03  0.17130000000E+03 0. -1.
      622    1    1    2    0    0 -0.39060792866E-03  0.19470309288E-04  0.38601108253E+01  0.38601213371E+01  0.90000000000E-02 0. -1.
</event>
<event>
 5   0  0.6135700E+09  0.9118800E+02  0.7818608E-02  0.1180000E+00
       11   -1    0    0    0    0  0.00000000000E+00  0.00000000000E+00  0.39999999673E+01  0.40000000000E+01  0.51109989000E-03 0.  1.
     -623   -1    0    0    0    0  0.00000000000E+00  0.00000000000E+00  0.12525980253E-10  0.17130000000E+03  0.17130000000E+03 0.  1.
       11    1    1    2    0    0  0.20396634217E-02  0.26196797084E-04  0.79134130355E-02  0.81880548431E-02  0.51109989000E-03 0.  1.
     -623    1    1    2    0    0 -0.94674964192E-03  0.53294576964E-05  0.28490754083E-03  0.17130000000E+03  0.17130000000E+03 0.  1.
      622    1    1    2    0    0 -0.10929137795E-02 -0.31526254782E-04  0.39918016482E+01  0.39918119437E+01  0.90000000000E-02 0.  1.
</event>
<event>
 5   0  0.6135700E+09  0.9118800E+02  0.7818608E-02  0.1180000E+00
       11   -1    0    0    0    0  0.00000000000E+00  0.00000000000E+00  0.39999999673E+01  0.40000000000E+01  0.51109989000E-03 0.  1.
     -623   -1    0    0    0    0  0.00000000000E+00  0.00000000000E+00  0.12525980253E-10  0.17130000000E+03  0.17130000000E+03 0.  1.
       11    1    1    2    0    0 -0.10190221420E-02 -0.10546808766E-02  0.23607847998E+00  0.23608358836E+00  0.51109989000E-03 0.  1.
     -623    1    1    2    0    0  0.11210326988E-03  0.33814431598E-04  0.16083562455E-04  0.17130000000E+03  0.17130000000E+03 0.  1.
      622    1    1    2    0    0  0.90691887210E-03  0.10208664450E-02  0.37639054038E+01  0.37639164116E+01  0.90000000000E-02 0.  1.
</event>
<event>
 5   0  0.6135700E+09  0.9118800E+02  0.7818608E-02  0.1180000E+00
       11   -1    0    0    0    0  0.00000000000E+00  0.00000000000E+00  0.39999999673E+01  0.40000000000E+01  0.51109989000E-03 0. -1.
     -623   -1    0    0    0    0  0.00000000000E+00  0.00000000000E+00  0.12525980253E-10  0.17130000000E+03  0.17130000000E+03 0. -1.
       11    1    1    2    0    0  0.36628319852E-02 -0.15041043886E-02  0.40446810337E-01  0.40643380212E-01  0.51109989000E-03 0. -1.
     -623    1    1    2    0    0 -0.54005413841E-02  0.73768761029E-03  0.20730853596E-03  0.17130000009E+03  0.17130000000E+03 0. -1.
      622    1    1    2    0    0  0.17377093989E-02  0.76641677832E-03  0.39593458485E+01  0.39593565329E+01  0.90000000000E-02 0. -1.
</event>
<event>
 5   0  0.6135700E+09  0.9118800E+02  0.7818608E-02  0.1180000E+00
       11   -1    0    0    0    0  0.00000000000E+00  0.00000000000E+00  0.39999999673E+01  0.40000000000E+01  0.51109989000E-03 0. -1.
     -623   -1    0    0    0    0  0.00000000000E+00  0.00000000000E+00  0.12525980253E-10  0.17130000000E+03  0.17130000000E+03 0. -1.
       11    1    1    2    0    0 -0.33039079326E-04 -0.41109481262E-03  0.23827937946E-01  0.23836986814E-01  0.51109989000E-03 0. -1.
     -623    1    1    2    0    0  0.29120476474E-03  0.64062679559E-03  0.19218392881E-04  0.17130000000E+03  0.17130000000E+03 0. -1.
      622    1    1    2    0    0 -0.25816568697E-03 -0.22953198637E-03  0.39761528323E+01  0.39761630330E+01  0.90000000000E-02 0. -1.
</event>
<event>
 5   0  0.6135700E+09  0.9118800E+02  0.7818608E-02  0.1180000E+00
       11   -1    0    0    0    0  0.00000000000E+00  0.00000000000E+00  0.39999999673E+01  0.40000000000E+01  0.51109989000E-03 0.  1.
     -623   -1    0    0    0    0  0.00000000000E+00  0.00000000000E+00  0.12525980253E-10  0.17130000000E+03  0.17130000000E+03 0. -1.
       11    1    1    2    0    0 -0.91007828826E-03 -0.61874456224E-03  0.13535671514E+00  0.13536215366E+00  0.51109989000E-03 0.  1.
     -623    1    1    2    0    0 -0.11235266635E-03 -0.14016536453E-03  0.16095388416E-04  0.17130000000E+03  0.17130000000E+03 0. -1.
      622    1    1    2    0    0  0.10224309546E-02  0.75890992677E-03  0.38646271568E+01  0.38646378462E+01  0.90000000000E-02 0.  1.
</event>
<event>
 5   0  0.6135700E+09  0.9118800E+02  0.7818608E-02  0.1180000E+00
       11   -1    0    0    0    0  0.00000000000E+00  0.00000000000E+00  0.39999999673E+01  0.40000000000E+01  0.51109989000E-03 0.  1.
     -623   -1    0    0    0    0  0.00000000000E+00  0.00000000000E+00  0.12525980253E-10  0.17130000000E+03  0.17130000000E+03 0. -1.
       11    1    1    2    0    0  0.37004342770E-02  0.66918288958E-03  0.17704126865E+00  0.17708193880E+00  0.51109989000E-03 0.  1.
     -623    1    1    2    0    0 -0.19174059128E-02 -0.61709706899E-02  0.55728211404E-04  0.17130000012E+03  0.17130000000E+03 0. -1.
      622    1    1    2    0    0 -0.17830283656E-02  0.55017877957E-02  0.38229029676E+01  0.38229179364E+01  0.90000000000E-02 0.  1.
</event>
<event>
 5   0  0.6135700E+09  0.9118800E+02  0.7818608E-02  0.1180000E+00
       11   -1    0    0    0    0  0.00000000000E+00  0.00000000000E+00  0.39999999673E+01  0.40000000000E+01  0.51109989000E-03 0. -1.
     -623   -1    0    0    0    0  0.00000000000E+00  0.00000000000E+00  0.12525980253E-10  0.17130000000E+03  0.17130000000E+03 0. -1.
       11    1    1    2    0    0  0.86767786926E-03  0.16124608561E-03  0.84263746561E+00  0.84263808277E+00  0.51109989000E-03 0. -1.
     -623    1    1    2    0    0  0.49131280768E-03 -0.47671059113E-03  0.13721309518E-04  0.17130000000E+03  0.17130000000E+03 0. -1.
      622    1    1    2    0    0 -0.13589906832E-02  0.31546451160E-03  0.31573488315E+01  0.31573619669E+01  0.90000000000E-02 0. -1.
</event>
<event>
 5   0  0.6135700E+09  0.9118800E+02  0.7818608E-02  0.1180000E+00
       11   -1    0    0    0    0  0.00000000000E+00  0.00000000000E+00  0.39999999673E+01  0.40000000000E+01  0.51109989000E-03 0. -1.
     -623   -1    0    0    0    0  0.00000000000E+00  0.00000000000E+00  0.12525980253E-10  0.17130000000E+03  0.17130000000E+03 0.  1.
       11    1    1    2    0    0  0.17091130551E-02 -0.84779012926E-03  0.41270300033E+00  0.41270772651E+00  0.51109989000E-03 0. -1.
     -623    1    1    2    0    0 -0.14515731778E-03 -0.36349044066E-03  0.16529275157E-04  0.17130000000E+03  0.17130000000E+03 0.  1.
      622    1    1    2    0    0 -0.15639557373E-02  0.12112805699E-02  0.35872804378E+01  0.35872922730E+01  0.90000000000E-02 0. -1.
</event>
<event>
 5   0  0.6135700E+09  0.9118800E+02  0.7818608E-02  0.1180000E+00
       11   -1    0    0    0    0  0.00000000000E+00  0.00000000000E+00  0.39999999673E+01  0.40000000000E+01  0.51109989000E-03 0.  1.
     -623   -1    0    0    0    0  0.00000000000E+00  0.00000000000E+00  0.12525980253E-10  0.17130000000E+03  0.17130000000E+03 0.  1.
       11    1    1    2    0    0 -0.12770922605E-02  0.10780887229E-02  0.41783707688E-01  0.41820242600E-01  0.51109989000E-03 0.  1.
     -623    1    1    2    0    0  0.28767632264E-04  0.13127706007E-03  0.47115921703E-04  0.17130000000E+03  0.17130000000E+03 0.  1.
      622    1    1    2    0    0  0.12483246283E-02 -0.12093657829E-02  0.39581691426E+01  0.39581797562E+01  0.90000000000E-02 0.  1.
</event>
<event>
 5   0  0.6135700E+09  0.9118800E+02  0.7818608E-02  0.1180000E+00
       11   -1    0    0    0    0  0.00000000000E+00  0.00000000000E+00  0.39999999673E+01  0.40000000000E+01  0.51109989000E-03 0.  1.
     -623   -1    0    0    0    0  0.00000000000E+00  0.00000000000E+00  0.12525980253E-10  0.17130000000E+03  0.17130000000E+03 0.  1.
       11    1    1    2    0    0 -0.26659265206E-03  0.96787941784E-03  0.32270481563E-02  0.34180294191E-02  0.51109989000E-03 0.  1.
     -623    1    1    2    0    0  0.14323700535E-02 -0.12490697006E-02  0.20127287289E-03  0.17130000001E+03  0.17130000000E+03 0.  1.
      622    1    1    2    0    0 -0.11657774020E-02  0.28119028323E-03  0.39965716477E+01  0.39965819612E+01  0.90000000000E-02 0.  1.
</event>
<event>
 5   0  0.6135700E+09  0.9118800E+02  0.7818608E-02  0.1180000E+00
       11   -1    0    0    0    0  0.00000000000E+00  0.00000000000E+00  0.39999999673E+01  0.40000000000E+01  0.51109989000E-03 0.  1.
     -623   -1    0    0    0    0  0.00000000000E+00  0.00000000000E+00  0.12525980253E-10  0.17130000000E+03  0.17130000000E+03 0. -1.
       11    1    1    2    0    0  0.20338653854E-03  0.17063937240E-02  0.54367635709E+00  0.54367931323E+00  0.51109989000E-03 0.  1.
     -623    1    1    2    0    0 -0.56704690382E-03  0.90722043300E-04  0.15128478004E-04  0.17130000000E+03  0.17130000000E+03 0. -1.
      622    1    1    2    0    0  0.36366036803E-03 -0.17971157678E-02  0.34563085012E+01  0.34563207052E+01  0.90000000000E-02 0.  1.
</event>
<event>
 5   0  0.6135700E+09  0.9118800E+02  0.7818608E-02  0.1180000E+00
       11   -1    0    0    0    0  0.00000000000E+00  0.00000000000E+00  0.39999999673E+01  0.40000000000E+01  0.51109989000E-03 0.  1.
     -623   -1    0    0    0    0  0.00000000000E+00  0.00000000000E+00  0.12525980253E-10  0.17130000000E+03  0.17130000000E+03 0.  1.
       11    1    1    2    0    0 -0.73728784798E-03 -0.58738839539E-03  0.53987391949E+00  0.53987498440E+00  0.51109989000E-03 0.  1.
     -623    1    1    2    0    0  0.43899454982E-03 -0.22267571496E-03  0.12845463576E-04  0.17130000000E+03  0.17130000000E+03 0.  1.
      622    1    1    2    0    0  0.29829329817E-03  0.81006411035E-03  0.34601132024E+01  0.34601250149E+01  0.90000000000E-02 0.  1.
</event>
<event>
 5   0  0.6135700E+09  0.9118800E+02  0.7818608E-02  0.1180000E+00
       11   -1    0    0    0    0  0.00000000000E+00  0.00000000000E+00  0.39999999673E+01  0.40000000000E+01  0.51109989000E-03 0. -1.
     -623   -1    0    0    0    0  0.00000000000E+00  0.00000000000E+00  0.12525980253E-10  0.17130000000E+03  0.17130000000E+03 0.  1.
       11    1    1    2    0    0 -0.10582751333E-03 -0.23362916369E-02  0.16162816693E+00  0.16164589394E+00  0.51109989000E-03 0. -1.
     -623    1    1    2    0    0 -0.35348425029E-02  0.16173268862E-02  0.30083810874E-04  0.17130000004E+03  0.17130000000E+03 0.  1.
      622    1    1    2    0    0  0.36406700071E-02  0.71896475488E-03  0.38383417063E+01  0.38383540516E+01  0.90000000000E-02 0. -1.
</event>
<event>
 5   0  0.6135700E+09  0.9118800E+02  0.7818608E-02  0.1180000E+00
       11   -1    0    0    0    0  0.00000000000E+00  0.00000000000E+00  0.39999999673E+01  0.40000000000E+01  0.51109989000E-03 0. -1.
     -623   -1    0    0    0    0  0.00000000000E+00  0.00000000000E+00  0.12525980253E-10  0.17130000000E+03  0.17130000000E+03 0.  1.
       11    1    1    2    0    0  0.14193466533E-03 -0.46099155613E-04  0.89759726212E-01  0.89761305367E-01  0.51109989000E-03 0. -1.
     -623    1    1    2    0    0 -0.46105797679E-03  0.60794560200E-03  0.11959039583E-04  0.17130000000E+03  0.17130000000E+03 0.  1.
      622    1    1    2    0    0  0.31912331145E-03 -0.56184644639E-03  0.39102282821E+01  0.39102386929E+01  0.90000000000E-02 0. -1.
</event>
<event>
 5   0  0.6135700E+09  0.9118800E+02  0.7818608E-02  0.1180000E+00
       11   -1    0    0    0    0  0.00000000000E+00  0.00000000000E+00  0.39999999673E+01  0.40000000000E+01  0.51109989000E-03 0. -1.
     -623   -1    0    0    0    0  0.00000000000E+00  0.00000000000E+00  0.12525980253E-10  0.17130000000E+03  0.17130000000E+03 0. -1.
       11    1    1    2    0    0  0.59120929044E-03 -0.74546271891E-03  0.38378259165E-01  0.38393453123E-01  0.51109989000E-03 0. -1.
     -623    1    1    2    0    0 -0.20389951845E-03 -0.18060920945E-03  0.25511848170E-04  0.17130000000E+03  0.17130000000E+03 0. -1.
      622    1    1    2    0    0 -0.38730977146E-03  0.92607192882E-03  0.39615962067E+01  0.39616065571E+01  0.90000000000E-02 0. -1.
</event>
<event>
 5   0  0.6135700E+09  0.9118800E+02  0.7818608E-02  0.1180000E+00
       11   -1    0    0    0    0  0.00000000000E+00  0.00000000000E+00  0.39999999673E+01  0.40000000000E+01  0.51109989000E-03 0.  1.
     -623   -1    0    0    0    0  0.00000000000E+00  0.00000000000E+00  0.12525980253E-10  0.17130000000E+03  0.17130000000E+03 0.  1.
       11    1    1    2    0    0  0.73339328137E-03 -0.74210302285E-03  0.16279240029E+00  0.16279654603E+00  0.51109989000E-03 0.  1.
     -623    1    1    2    0    0 -0.91209390598E-04  0.94457568650E-04  0.14776115057E-04  0.17130000000E+03  0.17130000000E+03 0.  1.
      622    1    1    2    0    0 -0.64218389132E-03  0.64764545476E-03  0.38371927670E+01  0.38372034300E+01  0.90000000000E-02 0.  0.
</event>
<event>
 5   0  0.6135700E+09  0.9118800E+02  0.7818608E-02  0.1180000E+00
       11   -1    0    0    0    0  0.00000000000E+00  0.00000000000E+00  0.39999999673E+01  0.40000000000E+01  0.51109989000E-03 0.  1.
     -623   -1    0    0    0    0  0.00000000000E+00  0.00000000000E+00  0.12525980253E-10  0.17130000000E+03  0.17130000000E+03 0. -1.
       11    1    1    2    0    0  0.66236836449E-03 -0.18996050479E-03  0.49532189429E-01  0.49539618760E-01  0.51109989000E-03 0.  1.
     -623    1    1    2    0    0 -0.19450959036E-04  0.25284243073E-04  0.17704425983E-04  0.17130000000E+03  0.17130000000E+03 0. -1.
      622    1    1    2    0    0 -0.64291740545E-03  0.16467626171E-03  0.39504500735E+01  0.39504603812E+01  0.90000000000E-02 0.  1.
</event>
<event>
 5   0  0.6135700E+09  0.9118800E+02  0.7818608E-02  0.1180000E+00
       11   -1    0    0    0    0  0.00000000000E+00  0.00000000000E+00  0.39999999673E+01  0.40000000000E+01  0.51109989000E-03 0. -1.
     -623   -1    0    0    0    0  0.00000000000E+00  0.00000000000E+00  0.12525980253E-10  0.17130000000E+03  0.17130000000E+03 0.  1.
       11    1    1    2    0    0  0.67335928062E-03  0.26131108336E-03  0.24150038838E-01  0.24166242834E-01  0.51109989000E-03 0. -1.
     -623    1    1    2    0    0 -0.16828061989E-04  0.74005786856E-04  0.26426276435E-04  0.17130000000E+03  0.17130000000E+03 0.  1.
      622    1    1    2    0    0 -0.65653121863E-03 -0.33531687021E-03  0.39758235022E+01  0.39758337571E+01  0.90000000000E-02 0. -1.
</event>
<event>
 5   0  0.6135700E+09  0.9118800E+02  0.7818608E-02  0.1180000E+00
       11   -1    0    0    0    0  0.00000000000E+00  0.00000000000E+00  0.39999999673E+01  0.40000000000E+01  0.51109989000E-03 0. -1.
     -623   -1    0    0    0    0  0.00000000000E+00  0.00000000000E+00  0.12525980253E-10  0.17130000000E+03  0.17130000000E+03 0.  1.
       11    1    1    2    0    0  0.57015948647E-04  0.36857789454E-04  0.31280796081E-01  0.31285044924E-01  0.51109989000E-03 0. -1.
     -623    1    1    2    0    0 -0.37977120805E-04  0.36911035699E-04  0.14421770035E-04  0.17130000000E+03  0.17130000000E+03 0.  1.
      622    1    1    2    0    0 -0.19038827561E-04 -0.73768825426E-04  0.39687047791E+01  0.39687149846E+01  0.90000000000E-02 0. -1.
</event>
<event>
 5   0  0.6135700E+09  0.9118800E+02  0.7818608E-02  0.1180000E+00
       11   -1    0    0    0    0  0.00000000000E+00  0.00000000000E+00  0.39999999673E+01  0.40000000000E+01  0.51109989000E-03 0. -1.
     -623   -1    0    0    0    0  0.00000000000E+00  0.00000000000E+00  0.12525980253E-10  0.17130000000E+03  0.17130000000E+03 0. -1.
       11    1    1    2    0    0 -0.74860522357E-03 -0.11838563854E-02  0.12568142180E+00  0.12569026586E+00  0.51109989000E-03 0. -1.
     -623    1    1    2    0    0 -0.33568720787E-03  0.58759813296E-03  0.19463865422E-04  0.17130000000E+03  0.17130000000E+03 0. -1.
      622    1    1    2    0    0  0.10842924314E-02  0.59625825244E-03  0.38742990817E+01  0.38743097328E+01  0.90000000000E-02 0. -1.
</event>
<event>
 5   0  0.6135700E+09  0.9118800E+02  0.7818608E-02  0.1180000E+00
       11   -1    0    0    0    0  0.00000000000E+00  0.00000000000E+00  0.39999999673E+01  0.40000000000E+01  0.51109989000E-03 0.  1.
     -623   -1    0    0    0    0  0.00000000000E+00  0.00000000000E+00  0.12525980253E-10  0.17130000000E+03  0.17130000000E+03 0.  1.
       11    1    1    2    0    0  0.48258584357E-02 -0.15859301732E-02  0.25685993209E-01  0.26188462218E-01  0.51109989000E-03 0.  1.
     -623    1    1    2    0    0  0.85293605544E-04  0.26778300188E-02  0.51583465523E-03  0.17130000002E+03  0.17130000000E+03 0.  1.
      622    1    1    2    0    0 -0.49111520412E-02 -0.10918998456E-02  0.39737981395E+01  0.39738115161E+01  0.90000000000E-02 0.  1.
</event>
<event>
 5   0  0.6135700E+09  0.9118800E+02  0.7818608E-02  0.1180000E+00
       11   -1    0    0    0    0  0.00000000000E+00  0.00000000000E+00  0.39999999673E+01  0.40000000000E+01  0.51109989000E-03 0.  1.
     -623   -1    0    0    0    0  0.00000000000E+00  0.00000000000E+00  0.12525980253E-10  0.17130000000E+03  0.17130000000E+03 0.  1.
       11    1    1    2    0    0 -0.16107509938E-02 -0.43832656948E-02  0.79259636223E+00  0.79261028393E+00  0.51109989000E-03 0.  1.
     -623    1    1    2    0    0  0.56441835677E-03 -0.46051740551E-03  0.30345934779E-04  0.17130000000E+03  0.17130000000E+03 0.  1.
      622    1    1    2    0    0  0.10463326337E-02  0.48437831031E-02  0.32073732833E+01  0.32073897386E+01  0.90000000000E-02 0. -1.
</event>
<event>
 5   0  0.6135700E+09  0.9118800E+02  0.7818608E-02  0.1180000E+00
       11   -1    0    0    0    0  0.00000000000E+00  0.00000000000E+00  0.39999999673E+01  0.40000000000E+01  0.51109989000E-03 0. -1.
     -623   -1    0    0    0    0  0.00000000000E+00  0.00000000000E+00  0.12525980253E-10  0.17130000000E+03  0.17130000000E+03 0.  1.
       11    1    1    2    0    0 -0.11738945613E-03 -0.99359273448E-04  0.20056834994E+00  0.20056906011E+00  0.51109989000E-03 0. -1.
     -623    1    1    2    0    0 -0.55977219584E-04  0.95480025563E-05  0.11342061992E-04  0.17130000000E+03  0.17130000000E+03 0.  1.
      622    1    1    2    0    0  0.17336667624E-03  0.89811270801E-04  0.37994203132E+01  0.37994309778E+01  0.90000000000E-02 0. -1.
</event>
<event>
 5   0  0.6135700E+09  0.9118800E+02  0.7818608E-02  0.1180000E+00
       11   -1    0    0    0    0  0.00000000000E+00  0.00000000000E+00  0.39999999673E+01  0.40000000000E+01  0.51109989000E-03 0. -1.
     -623   -1    0    0    0    0  0.00000000000E+00  0.00000000000E+00  0.12525980253E-10  0.17130000000E+03  0.17130000000E+03 0.  1.
       11    1    1    2    0    0  0.25178664469E-03  0.29529130492E-02  0.71319864453E-01  0.71383242996E-01  0.51109989000E-03 0. -1.
     -623    1    1    2    0    0 -0.10087750012E-02 -0.67941387047E-04  0.74790108918E-04  0.17130000000E+03  0.17130000000E+03 0.  1.
      622    1    1    2    0    0  0.75698835695E-03 -0.28849716621E-02  0.39286053146E+01  0.39286167558E+01  0.90000000000E-02 0. -1.
</event>
<event>
 5   0  0.6135700E+09  0.9118800E+02  0.7818608E-02  0.1180000E+00
       11   -1    0    0    0    0  0.00000000000E+00  0.00000000000E+00  0.39999999673E+01  0.40000000000E+01  0.51109989000E-03 0.  1.
     -623   -1    0    0    0    0  0.00000000000E+00  0.00000000000E+00  0.12525980253E-10  0.17130000000E+03  0.17130000000E+03 0. -1.
       11    1    1    2    0    0  0.51157986682E-03 -0.30712813616E-03  0.23097249876E-01  0.23110608312E-01  0.51109989000E-03 0.  1.
     -623    1    1    2    0    0 -0.19081685570E-02 -0.61520511710E-03  0.23873563080E-04  0.17130000001E+03  0.17130000000E+03 0. -1.
      622    1    1    2    0    0  0.13965886924E-02  0.92233325398E-03  0.39768788486E+01  0.39768893846E+01  0.90000000000E-02 0.  1.
</event>
<event>
 5   0  0.6135700E+09  0.9118800E+02  0.7818608E-02  0.1180000E+00
       11   -1    0    0    0    0  0.00000000000E+00  0.00000000000E+00  0.39999999673E+01  0.40000000000E+01  0.51109989000E-03 0. -1.
     -623   -1    0    0    0    0  0.00000000000E+00  0.00000000000E+00  0.12525980253E-10  0.17130000000E+03  0.17130000000E+03 0.  1.
       11    1    1    2    0    0 -0.15470396475E-02 -0.44600328776E-02  0.47290389710E+00  0.47292773480E+00  0.51109989000E-03 0. -1.
     -623    1    1    2    0    0 -0.75433004843E-03 -0.15202682220E-02  0.41116857459E-04  0.17130000001E+03  0.17130000000E+03 0.  1.
      622    1    1    2    0    0  0.23013696964E-02  0.59803011006E-02  0.35270549559E+01  0.35270722593E+01  0.90000000000E-02 0. -1.
</event>
<event>
 5   0  0.6135700E+09  0.9118800E+02  0.7818608E-02  0.1180000E+00
       11   -1    0    0    0    0  0.00000000000E+00  0.00000000000E+00  0.39999999673E+01  0.40000000000E+01  0.51109989000E-03 0.  1.
     -623   -1    0    0    0    0  0.00000000000E+00  0.00000000000E+00  0.12525980253E-10  0.17130000000E+03  0.17130000000E+03 0.  1.
       11    1    1    2    0    0  0.45019229721E-03  0.19099559190E-02  0.71054617303E+00  0.71054906645E+00  0.51109989000E-03 0.  1.
     -623    1    1    2    0    0 -0.68577794691E-03  0.45052085788E-03  0.16030222389E-04  0.17130000000E+03  0.17130000000E+03 0.  1.
      622    1    1    2    0    0  0.23558564798E-03 -0.23604767757E-02  0.32894377541E+01  0.32894509215E+01  0.90000000000E-02 0.  1.
</event>
<event>
 5   0  0.6135700E+09  0.9118800E+02  0.7818608E-02  0.1180000E+00
       11   -1    0    0    0    0  0.00000000000E+00  0.00000000000E+00  0.39999999673E+01  0.40000000000E+01  0.51109989000E-03 0.  1.
     -623   -1    0    0    0    0  0.00000000000E+00  0.00000000000E+00  0.12525980253E-10  0.17130000000E+03  0.17130000000E+03 0.  1.
       11    1    1    2    0    0 -0.46170230320E-02 -0.11403628935E-01  0.23269964688E+00  0.23302520580E+00  0.51109989000E-03 0.  1.
     -623    1    1    2    0    0  0.42082905450E-02  0.74072950132E-02  0.33863181066E-03  0.17130000021E+03  0.17130000000E+03 0.  1.
      622    1    1    2    0    0  0.40873248701E-03  0.39963339222E-02  0.37669616887E+01  0.37669745820E+01  0.90000000000E-02 0.  1.
</event>
<event>
 5   0  0.6135700E+09  0.9118800E+02  0.7818608E-02  0.1180000E+00
       11   -1    0    0    0    0  0.00000000000E+00  0.00000000000E+00  0.39999999673E+01  0.40000000000E+01  0.51109989000E-03 0.  1.
     -623   -1    0    0    0    0  0.00000000000E+00  0.00000000000E+00  0.12525980253E-10  0.17130000000E+03  0.17130000000E+03 0. -1.
       11    1    1    2    0    0  0.50764498529E-02 -0.69009856210E-02  0.88809581677E+00  0.88813728383E+00  0.51109989000E-03 0.  1.
     -623    1    1    2    0    0  0.13109190281E-03 -0.11852019511E-03  0.66723653218E-04  0.17130000000E+03  0.17130000000E+03 0. -1.
      622    1    1    2    0    0 -0.52075417557E-02  0.70195058162E-02  0.31118374269E+01  0.31118627161E+01  0.90000000000E-02 0.  1.
</event>
<event>
 5   0  0.6135700E+09  0.9118800E+02  0.7818608E-02  0.1180000E+00
       11   -1    0    0    0    0  0.00000000000E+00  0.00000000000E+00  0.39999999673E+01  0.40000000000E+01  0.51109989000E-03 0.  1.
     -623   -1    0    0    0    0  0.00000000000E+00  0.00000000000E+00  0.12525980253E-10  0.17130000000E+03  0.17130000000E+03 0.  1.
       11    1    1    2    0    0 -0.15806786366E-02  0.81120632169E-03  0.39178273059E+00  0.39178709246E+00  0.51109989000E-03 0.  1.
     -623    1    1    2    0    0  0.34436925585E-03  0.71045114097E-04  0.15873658928E-04  0.17130000000E+03  0.17130000000E+03 0.  1.
      622    1    1    2    0    0  0.12363093795E-02 -0.88225143603E-03  0.36082013770E+01  0.36082129211E+01  0.90000000000E-02 0.  1.
</event>
<event>
 5   0  0.6135700E+09  0.9118800E+02  0.7818608E-02  0.1180000E+00
       11   -1    0    0    0    0  0.00000000000E+00  0.00000000000E+00  0.39999999673E+01  0.40000000000E+01  0.51109989000E-03 0. -1.
     -623   -1    0    0    0    0  0.00000000000E+00  0.00000000000E+00  0.12525980253E-10  0.17130000000E+03  0.17130000000E+03 0.  1.
       11    1    1    2    0    0 -0.62738159687E-03 -0.10982530544E-02  0.17047709386E-01  0.17102204123E-01  0.51109989000E-03 0. -1.
     -623    1    1    2    0    0  0.11592184869E-02  0.17640268949E-02  0.64734755743E-04  0.17130000001E+03  0.17130000000E+03 0.  1.
      622    1    1    2    0    0 -0.53183689024E-03 -0.66577384073E-03  0.39828875239E+01  0.39828977835E+01  0.90000000000E-02 0. -1.
</event>
<event>
 5   0  0.6135700E+09  0.9118800E+02  0.7818608E-02  0.1180000E+00
       11   -1    0    0    0    0  0.00000000000E+00  0.00000000000E+00  0.39999999673E+01  0.40000000000E+01  0.51109989000E-03 0.  1.
     -623   -1    0    0    0    0  0.00000000000E+00  0.00000000000E+00  0.12525980253E-10  0.17130000000E+03  0.17130000000E+03 0.  1.
       11    1    1    2    0    0  0.35621944900E-03 -0.24857160477E-03  0.10379218427E-01  0.10400869118E-01  0.51109989000E-03 0.  1.
     -623    1    1    2    0    0 -0.37861290694E-04 -0.11348464698E-04  0.31790635072E-04  0.17130000000E+03  0.17130000000E+03 0.  1.
      622    1    1    2    0    0 -0.31835815823E-03  0.25992006949E-03  0.39895889662E+01  0.39895991388E+01  0.90000000000E-02 0.  1.
</event>
<event>
 5   0  0.6135700E+09  0.9118800E+02  0.7818608E-02  0.1180000E+00
       11   -1    0    0    0    0  0.00000000000E+00  0.00000000000E+00  0.39999999673E+01  0.40000000000E+01  0.51109989000E-03 0. -1.
     -623   -1    0    0    0    0  0.00000000000E+00  0.00000000000E+00  0.12525980253E-10  0.17130000000E+03  0.17130000000E+03 0.  1.
       11    1    1    2    0    0 -0.17719105214E-02 -0.88057732289E-03  0.36688261212E-01  0.36745133213E-01  0.51109989000E-03 0. -1.
     -623    1    1    2    0    0  0.27413527085E-03 -0.62914111744E-03  0.67630200856E-04  0.17130000000E+03  0.17130000000E+03 0.  1.
      622    1    1    2    0    0  0.14977752505E-02  0.15097184403E-02  0.39632440759E+01  0.39632548654E+01  0.90000000000E-02 0. -1.
</event>
<event>
 5   0  0.6135700E+09  0.9118800E+02  0.7818608E-02  0.1180000E+00
       11   -1    0    0    0    0  0.00000000000E+00  0.00000000000E+00  0.39999999673E+01  0.40000000000E+01  0.51109989000E-03 0.  1.
     -623   -1    0    0    0    0  0.00000000000E+00  0.00000000000E+00  0.12525980253E-10  0.17130000000E+03  0.17130000000E+03 0. -1.
       11    1    1    2    0    0  0.66009281460E-02 -0.43357041957E-02  0.88233146044E+00  0.88236695195E+00  0.51109989000E-03 0.  1.
     -623    1    1    2    0    0  0.42500902113E-03  0.38222008845E-03  0.58874128797E-04  0.17130000000E+03  0.17130000000E+03 0. -1.
      622    1    1    2    0    0 -0.70259371669E-02  0.39534841075E-02  0.31176096305E+01  0.31176330448E+01  0.90000000000E-02 0.  1.
</event>
<event>
 5   0  0.6135700E+09  0.9118800E+02  0.7818608E-02  0.1180000E+00
       11   -1    0    0    0    0  0.00000000000E+00  0.00000000000E+00  0.39999999673E+01  0.40000000000E+01  0.51109989000E-03 0. -1.
     -623   -1    0    0    0    0  0.00000000000E+00  0.00000000000E+00  0.12525980253E-10  0.17130000000E+03  0.17130000000E+03 0.  1.
       11    1    1    2    0    0  0.15544358368E-02  0.14445089244E-02  0.11535054345E+00  0.11537119214E+00  0.51109989000E-03 0. -1.
     -623    1    1    2    0    0 -0.13460738087E-03 -0.15695446129E-04  0.31564061548E-04  0.17130000000E+03  0.17130000000E+03 0.  1.
      622    1    1    2    0    0 -0.14198284560E-02 -0.14288134783E-02  0.38846178566E+01  0.38846288046E+01  0.90000000000E-02 0. -1.
</event>
<event>
 5   0  0.6135700E+09  0.9118800E+02  0.7818608E-02  0.1180000E+00
       11   -1    0    0    0    0  0.00000000000E+00  0.00000000000E+00  0.39999999673E+01  0.40000000000E+01  0.51109989000E-03 0.  1.
     -623   -1    0    0    0    0  0.00000000000E+00  0.00000000000E+00  0.12525980253E-10  0.17130000000E+03  0.17130000000E+03 0. -1.
       11    1    1    2    0    0  0.14456364127E-02 -0.51260332175E-02  0.59542386254E+00  0.59544790149E+00  0.51109989000E-03 0.  1.
     -623    1    1    2    0    0  0.14105143984E-02  0.30889062646E-02  0.37743338679E-04  0.17130000003E+03  0.17130000000E+03 0. -1.
      622    1    1    2    0    0 -0.28561508112E-02  0.20371269528E-02  0.34045383617E+01  0.34045520651E+01  0.90000000000E-02 0.  0.
</event>
<event>
 5   0  0.6135700E+09  0.9118800E+02  0.7818608E-02  0.1180000E+00
       11   -1    0    0    0    0  0.00000000000E+00  0.00000000000E+00  0.39999999673E+01  0.40000000000E+01  0.51109989000E-03 0.  1.
     -623   -1    0    0    0    0  0.00000000000E+00  0.00000000000E+00  0.12525980253E-10  0.17130000000E+03  0.17130000000E+03 0.  1.
       11    1    1    2    0    0 -0.12848145120E-02 -0.95429357325E-03  0.24152424280E+00  0.24153008613E+00  0.51109989000E-03 0.  1.
     -623    1    1    2    0    0  0.28257455224E-02  0.40825982240E-02  0.18276111820E-04  0.17130000007E+03  0.17130000000E+03 0.  1.
      622    1    1    2    0    0 -0.15409310104E-02 -0.31283046507E-02  0.37584574484E+01  0.37584698419E+01  0.90000000000E-02 0.  1.
</event>
<event>
 5   0  0.6135700E+09  0.9118800E+02  0.7818608E-02  0.1180000E+00
       11   -1    0    0    0    0  0.00000000000E+00  0.00000000000E+00  0.39999999673E+01  0.40000000000E+01  0.51109989000E-03 0. -1.
     -623   -1    0    0    0    0  0.00000000000E+00  0.00000000000E+00  0.12525980253E-10  0.17130000000E+03  0.17130000000E+03 0.  1.
       11    1    1    2    0    0 -0.12260862080E-01  0.47031258216E-02  0.10993400279E+01  0.10994185764E+01  0.51109989000E-03 0. -1.
     -623    1    1    2    0    0  0.83873314327E-02  0.12098884189E-02  0.10130181930E-03  0.17130000021E+03  0.17130000000E+03 0.  1.
      622    1    1    2    0    0  0.38735306478E-02 -0.59130142405E-02  0.29005586377E+01  0.29005812139E+01  0.90000000000E-02 0. -1.
</event>
<event>
 5   0  0.6135700E+09  0.9118800E+02  0.7818608E-02  0.1180000E+00
       11   -1    0    0    0    0  0.00000000000E+00  0.00000000000E+00  0.39999999673E+01  0.40000000000E+01  0.51109989000E-03 0.  1.
     -623   -1    0    0    0    0  0.00000000000E+00  0.00000000000E+00  0.12525980253E-10  0.17130000000E+03  0.17130000000E+03 0.  1.
       11    1    1    2    0    0  0.20876310200E-03  0.17760617852E-02  0.87832700195E-01  0.87852389974E-01  0.51109989000E-03 0.  1.
     -623    1    1    2    0    0  0.70348750155E-03 -0.30333879737E-02  0.30346235917E-04  0.17130000003E+03  0.17130000000E+03 0.  1.
      622    1    1    2    0    0 -0.91225060226E-03  0.12573261829E-02  0.39121369136E+01  0.39121475744E+01  0.90000000000E-02 0.  1.
</event>
<event>
 5   0  0.6135700E+09  0.9118800E+02  0.7818608E-02  0.1180000E+00
       11   -1    0    0    0    0  0.00000000000E+00  0.00000000000E+00  0.39999999673E+01  0.40000000000E+01  0.51109989000E-03 0. -1.
     -623   -1    0    0    0    0  0.00000000000E+00  0.00000000000E+00  0.12525980253E-10  0.17130000000E+03  0.17130000000E+03 0. -1.
       11    1    1    2    0    0 -0.16172547746E-02 -0.59963926679E-02  0.10901169977E+01  0.10901348092E+01  0.51109989000E-03 0. -1.
     -623    1    1    2    0    0  0.29730984643E-02  0.74799827751E-03  0.36773510383E-04  0.17130000003E+03  0.17130000000E+03 0. -1.
      622    1    1    2    0    0 -0.13558436898E-02  0.52483943903E-02  0.29098461961E+01  0.29098651634E+01  0.90000000000E-02 0. -1.
</event>
<event>
 5   0  0.6135700E+09  0.9118800E+02  0.7818608E-02  0.1180000E+00
       11   -1    0    0    0    0  0.00000000000E+00  0.00000000000E+00  0.39999999673E+01  0.40000000000E+01  0.51109989000E-03 0. -1.
     -623   -1    0    0    0    0  0.00000000000E+00  0.00000000000E+00  0.12525980253E-10  0.17130000000E+03  0.17130000000E+03 0. -1.
       11    1    1    2    0    0  0.84697992750E-02  0.85835491194E-02  0.20823840844E+00  0.20858789703E+00  0.51109989000E-03 0. -1.
     -623    1    1    2    0    0 -0.17704603244E-02 -0.47352175418E-02  0.36808486537E-03  0.17130000007E+03  0.17130000000E+03 0. -1.
      622    1    1    2    0    0 -0.66993389506E-02 -0.38483315775E-02  0.37913934741E+01  0.37914120280E+01  0.90000000000E-02 0. -1.
</event>
<event>
 5   0  0.6135700E+09  0.9118800E+02  0.7818608E-02  0.1180000E+00
       11   -1    0    0    0    0  0.00000000000E+00  0.00000000000E+00  0.39999999673E+01  0.40000000000E+01  0.51109989000E-03 0. -1.
     -623   -1    0    0    0    0  0.00000000000E+00  0.00000000000E+00  0.12525980253E-10  0.17130000000E+03  0.17130000000E+03 0. -1.
       11    1    1    2    0    0  0.18593590471E-03 -0.28716500561E-02  0.96796769421E-01  0.96840883606E-01  0.51109989000E-03 0. -1.
     -623    1    1    2    0    0 -0.12817459763E-02 -0.66557569692E-03  0.56220496106E-04  0.17130000001E+03  0.17130000000E+03 0. -1.
      622    1    1    2    0    0  0.10958100716E-02  0.35372257530E-02  0.39031469774E+01  0.39031591103E+01  0.90000000000E-02 0. -1.
</event>
<event>
 5   0  0.6135700E+09  0.9118800E+02  0.7818608E-02  0.1180000E+00
       11   -1    0    0    0    0  0.00000000000E+00  0.00000000000E+00  0.39999999673E+01  0.40000000000E+01  0.51109989000E-03 0.  1.
     -623   -1    0    0    0    0  0.00000000000E+00  0.00000000000E+00  0.12525980253E-10  0.17130000000E+03  0.17130000000E+03 0. -1.
       11    1    1    2    0    0  0.69497875068E-03  0.75322551795E-02  0.38707119853E+00  0.38714544014E+00  0.51109989000E-03 0.  1.
     -623    1    1    2    0    0  0.10061912812E-03 -0.32232267154E-03  0.92701132708E-04  0.17130000000E+03  0.17130000000E+03 0. -1.
      622    1    1    2    0    0 -0.79559787881E-03 -0.72099325080E-02  0.36128360677E+01  0.36128545595E+01  0.90000000000E-02 0.  1.
</event>
<event>
 5   0  0.6135700E+09  0.9118800E+02  0.7818608E-02  0.1180000E+00
       11   -1    0    0    0    0  0.00000000000E+00  0.00000000000E+00  0.39999999673E+01  0.40000000000E+01  0.51109989000E-03 0. -1.
     -623   -1    0    0    0    0  0.00000000000E+00  0.00000000000E+00  0.12525980253E-10  0.17130000000E+03  0.17130000000E+03 0.  1.
       11    1    1    2    0    0  0.89008889341E-03  0.24857929480E-02  0.66029016290E-01  0.66083762303E-01  0.51109989000E-03 0. -1.
     -623    1    1    2    0    0 -0.67285702443E-03 -0.20810319620E-03  0.65675308318E-04  0.17130000000E+03  0.17130000000E+03 0.  1.
      622    1    1    2    0    0 -0.21723186800E-03 -0.22776897515E-02  0.39339052815E+01  0.39339162420E+01  0.90000000000E-02 0. -1.
</event>
<event>
 5   0  0.6135700E+09  0.9118800E+02  0.7818608E-02  0.1180000E+00
       11   -1    0    0    0    0  0.00000000000E+00  0.00000000000E+00  0.39999999673E+01  0.40000000000E+01  0.51109989000E-03 0.  1.
     -623   -1    0    0    0    0  0.00000000000E+00  0.00000000000E+00  0.12525980253E-10  0.17130000000E+03  0.17130000000E+03 0. -1.
       11    1    1    2    0    0 -0.10625653568E-02 -0.19406356228E-02  0.63576805018E+00  0.63577210537E+00  0.51109989000E-03 0.  1.
     -623    1    1    2    0    0 -0.80859057607E-03  0.63242233669E-03  0.16838789319E-04  0.17130000000E+03  0.17130000000E+03 0. -1.
      622    1    1    2    0    0  0.18711559349E-02  0.13082132845E-02  0.33642150884E+01  0.33642279016E+01  0.90000000000E-02 0.  1.
</event>
<event>
 5   0  0.6135700E+09  0.9118800E+02  0.7818608E-02  0.1180000E+00
       11   -1    0    0    0    0  0.00000000000E+00  0.00000000000E+00  0.39999999673E+01  0.40000000000E+01  0.51109989000E-03 0.  1.
     -623   -1    0    0    0    0  0.00000000000E+00  0.00000000000E+00  0.12525980253E-10  0.17130000000E+03  0.17130000000E+03 0. -1.
       11    1    1    2    0    0 -0.83757533572E-03 -0.74878312572E-05  0.34520417974E+00  0.34520557429E+00  0.51109989000E-03 0.  1.
     -623    1    1    2    0    0 -0.39591424215E-03 -0.59457292194E-04  0.12652489775E-04  0.17130000000E+03  0.17130000000E+03 0. -1.
      622    1    1    2    0    0  0.12334895779E-02  0.66945123452E-04  0.36547831351E+01  0.36547944252E+01  0.90000000000E-02 0.  1.
</event>
<event>
 5   0  0.6135700E+09  0.9118800E+02  0.7818608E-02  0.1180000E+00
       11   -1    0    0    0    0  0.00000000000E+00  0.00000000000E+00  0.39999999673E+01  0.40000000000E+01  0.51109989000E-03 0.  1.
     -623   -1    0    0    0    0  0.00000000000E+00  0.00000000000E+00  0.12525980253E-10  0.17130000000E+03  0.17130000000E+03 0. -1.
       11    1    1    2    0    0 -0.23242824909E-04 -0.12142579752E-03  0.95072945904E-01  0.95074400067E-01  0.51109989000E-03 0.  1.
     -623    1    1    2    0    0 -0.64475731464E-05  0.46129211080E-04  0.11793898581E-04  0.17130000000E+03  0.17130000000E+03 0. -1.
      622    1    1    2    0    0  0.29690398055E-04  0.75296586438E-04  0.39049152276E+01  0.39049255999E+01  0.90000000000E-02 0.  1.
</event>
<event>
 5   0  0.6135700E+09  0.9118800E+02  0.7818608E-02  0.1180000E+00
       11   -1    0    0    0    0  0.00000000000E+00  0.00000000000E+00  0.39999999673E+01  0.40000000000E+01  0.51109989000E-03 0.  1.
     -623   -1    0    0    0    0  0.00000000000E+00  0.00000000000E+00  0.12525980253E-10  0.17130000000E+03  0.17130000000E+03 0. -1.
       11    1    1    2    0    0 -0.12702035817E-02  0.37879772623E-02  0.43060907950E+00  0.43062791683E+00  0.51109989000E-03 0.  1.
     -623    1    1    2    0    0  0.19126988695E-02  0.88718882005E-04  0.32325024594E-04  0.17130000001E+03  0.17130000000E+03 0. -1.
      622    1    1    2    0    0 -0.64249528774E-03 -0.38766961443E-02  0.35693585628E+01  0.35693720725E+01  0.90000000000E-02 0.  1.
</event>
<event>
 5   0  0.6135700E+09  0.9118800E+02  0.7818608E-02  0.1180000E+00
       11   -1    0    0    0    0  0.00000000000E+00  0.00000000000E+00  0.39999999673E+01  0.40000000000E+01  0.51109989000E-03 0.  1.
     -623   -1    0    0    0    0  0.00000000000E+00  0.00000000000E+00  0.12525980253E-10  0.17130000000E+03  0.17130000000E+03 0.  1.
       11    1    1    2    0    0 -0.36507774123E-02 -0.10163562536E-02  0.10974919850E+00  0.10981579554E+00  0.51109989000E-03 0.  1.
     -623    1    1    2    0    0  0.19868638877E-03  0.78478835007E-03  0.78515726917E-04  0.17130000000E+03  0.17130000000E+03 0.  1.
      622    1    1    2    0    0  0.34520910234E-02  0.23156790306E-03  0.38901722556E+01  0.38901842050E+01  0.90000000000E-02 0.  1.
</event>
<event>
 5   0  0.6135700E+09  0.9118800E+02  0.7818608E-02  0.1180000E+00
       11   -1    0    0    0    0  0.00000000000E+00  0.00000000000E+00  0.39999999673E+01  0.40000000000E+01  0.51109989000E-03 0. -1.
     -623   -1    0    0    0    0  0.00000000000E+00  0.00000000000E+00  0.12525980253E-10  0.17130000000E+03  0.17130000000E+03 0.  1.
       11    1    1    2    0    0 -0.38127345341E-03 -0.73635146705E-03  0.21385716733E-01  0.21407888411E-01  0.51109989000E-03 0.  1.
     -623    1    1    2    0    0 -0.13060456566E-03 -0.32914193395E-03  0.32494502129E-04  0.17130000000E+03  0.17130000000E+03 0.  1.
      622    1    1    2    0    0  0.51187801963E-03  0.10654934024E-02  0.39785817732E+01  0.39785921283E+01  0.90000000000E-02 0. -1.
</event>
<event>
 5   0  0.6135700E+09  0.9118800E+02  0.7818608E-02  0.1180000E+00
       11   -1    0    0    0    0  0.00000000000E+00  0.00000000000E+00  0.39999999673E+01  0.40000000000E+01  0.51109989000E-03 0. -1.
     -623   -1    0    0    0    0  0.00000000000E+00  0.00000000000E+00  0.12525980253E-10  0.17130000000E+03  0.17130000000E+03 0.  1.
       11    1    1    2    0    0 -0.16115642280E-02 -0.22430883102E-02  0.30309299278E+00  0.30310600799E+00  0.51109989000E-03 0. -1.
     -623    1    1    2    0    0  0.80680541326E-03  0.22193664508E-03  0.24579866513E-04  0.17130000000E+03  0.17130000000E+03 0.  1.
      622    1    1    2    0    0  0.80475881532E-03  0.20211516653E-02  0.36968823916E+01  0.36968939868E+01  0.90000000000E-02 0. -1.
</event>
<event>
 5   0  0.6135700E+09  0.9118800E+02  0.7818608E-02  0.1180000E+00
       11   -1    0    0    0    0  0.00000000000E+00  0.00000000000E+00  0.39999999673E+01  0.40000000000E+01  0.51109989000E-03 0. -1.
     -623   -1    0    0    0    0  0.00000000000E+00  0.00000000000E+00  0.12525980253E-10  0.17130000000E+03  0.17130000000E+03 0. -1.
       11    1    1    2    0    0  0.35693442938E-02 -0.46450709011E-02  0.61034755786E+00  0.61037588379E+00  0.51109989000E-03 0. -1.
     -623    1    1    2    0    0  0.14766515665E-03  0.99066053679E-04  0.45328108140E-04  0.17130000000E+03  0.17130000000E+03 0. -1.
      622    1    1    2    0    0 -0.37170094504E-02  0.45460048474E-02  0.33896070814E+01  0.33896241161E+01  0.90000000000E-02 0. -1.
</event>
<event>
 5   0  0.6135700E+09  0.9118800E+02  0.7818608E-02  0.1180000E+00
       11   -1    0    0    0    0  0.00000000000E+00  0.00000000000E+00  0.39999999673E+01  0.40000000000E+01  0.51109989000E-03 0. -1.
     -623   -1    0    0    0    0  0.00000000000E+00  0.00000000000E+00  0.12525980253E-10  0.17130000000E+03  0.17130000000E+03 0. -1.
       11    1    1    2    0    0  0.95458837768E-03 -0.46031812361E-03  0.24197797767E+00  0.24198083815E+00  0.51109989000E-03 0.  1.
     -623    1    1    2    0    0 -0.85784553260E-04 -0.69284638072E-05  0.13734304232E-04  0.17130000000E+03  0.17130000000E+03 0. -1.
      622    1    1    2    0    0 -0.86880382442E-03  0.46724658742E-03  0.37580082554E+01  0.37580191618E+01  0.90000000000E-02 0. -1.
</event>
<event>
 5   0  0.6135700E+09  0.9118800E+02  0.7818608E-02  0.1180000E+00
       11   -1    0    0    0    0  0.00000000000E+00  0.00000000000E+00  0.39999999673E+01  0.40000000000E+01  0.51109989000E-03 0.  1.
     -623   -1    0    0    0    0  0.00000000000E+00  0.00000000000E+00  0.12525980253E-10  0.17130000000E+03  0.17130000000E+03 0. -1.
       11    1    1    2    0    0  0.78638378182E-03 -0.79063550008E-03  0.31095275151E-01  0.31119461158E-01  0.51109989000E-03 0.  1.
     -623    1    1    2    0    0  0.65082127971E-04  0.25252822352E-04  0.34522921678E-04  0.17130000000E+03  0.17130000000E+03 0. -1.
      622    1    1    2    0    0 -0.85146590979E-03  0.76538267773E-03  0.39688701693E+01  0.39688805388E+01  0.90000000000E-02 0.  1.
</event>
<event>
 5   0  0.6135700E+09  0.9118800E+02  0.7818608E-02  0.1180000E+00
       11   -1    0    0    0    0  0.00000000000E+00  0.00000000000E+00  0.39999999673E+01  0.40000000000E+01  0.51109989000E-03 0. -1.
     -623   -1    0    0    0    0  0.00000000000E+00  0.00000000000E+00  0.12525980253E-10  0.17130000000E+03  0.17130000000E+03 0.  1.
       11    1    1    2    0    0 -0.26179003206E-02  0.77264248468E-03  0.78115466988E+00  0.78115960589E+00  0.51109989000E-03 0. -1.
     -623    1    1    2    0    0  0.80221525948E-04  0.28016877929E-03  0.18658327658E-04  0.17130000000E+03  0.17130000000E+03 0.  1.
      622    1    1    2    0    0  0.25376787945E-02 -0.10528112647E-02  0.32188266495E+01  0.32188404042E+01  0.90000000000E-02 0. -1.
</event>
<event>
 5   0  0.6135700E+09  0.9118800E+02  0.7818608E-02  0.1180000E+00
       11   -1    0    0    0    0  0.00000000000E+00  0.00000000000E+00  0.39999999673E+01  0.40000000000E+01  0.51109989000E-03 0. -1.
     -623   -1    0    0    0    0  0.00000000000E+00  0.00000000000E+00  0.12525980253E-10  0.17130000000E+03  0.17130000000E+03 0.  1.
       11    1    1    2    0    0  0.22276743145E-04 -0.71296914463E-03  0.18479676260E+00  0.18479884608E+00  0.51109989000E-03 0. -1.
     -623    1    1    2    0    0  0.16263844923E-03  0.37277194330E-03  0.12686414563E-04  0.17130000000E+03  0.17130000000E+03 0.  1.
      622    1    1    2    0    0 -0.18491519264E-03  0.34019720071E-03  0.38151905250E+01  0.38152011601E+01  0.90000000000E-02 0. -1.
</event>
<event>
 5   0  0.6135700E+09  0.9118800E+02  0.7818608E-02  0.1180000E+00
       11   -1    0    0    0    0  0.00000000000E+00  0.00000000000E+00  0.39999999673E+01  0.40000000000E+01  0.51109989000E-03 0.  1.
     -623   -1    0    0    0    0  0.00000000000E+00  0.00000000000E+00  0.12525980253E-10  0.17130000000E+03  0.17130000000E+03 0. -1.
       11    1    1    2    0    0 -0.61744798265E-03  0.27765491939E-02  0.31484989222E-01  0.31617340747E-01  0.51109989000E-03 0.  1.
     -623    1    1    2    0    0 -0.63145843042E-04 -0.25796616674E-02  0.14260730910E-03  0.17130000002E+03  0.17130000000E+03 0. -1.
      622    1    1    2    0    0  0.68059382569E-03 -0.19688752652E-03  0.39683723708E+01  0.39683826398E+01  0.90000000000E-02 0.  1.
</event>
<event>
 5   0  0.6135700E+09  0.9118800E+02  0.7818608E-02  0.1180000E+00
       11   -1    0    0    0    0  0.00000000000E+00  0.00000000000E+00  0.39999999673E+01  0.40000000000E+01  0.51109989000E-03 0. -1.
     -623   -1    0    0    0    0  0.00000000000E+00  0.00000000000E+00  0.12525980253E-10  0.17130000000E+03  0.17130000000E+03 0.  1.
       11    1    1    2    0    0  0.98107226058E-04 -0.20610519510E-02  0.52674085100E-02  0.56801739130E-02  0.51109989000E-03 0. -1.
     -623    1    1    2    0    0 -0.18685662844E-02  0.23094966143E-03  0.42369467473E-03  0.17130000001E+03  0.17130000000E+03 0.  1.
      622    1    1    2    0    0  0.17704590584E-02  0.18301022896E-02  0.39943088644E+01  0.39943198154E+01  0.90000000000E-02 0. -1.
</event>
<event>
 5   0  0.6135700E+09  0.9118800E+02  0.7818608E-02  0.1180000E+00
       11   -1    0    0    0    0  0.00000000000E+00  0.00000000000E+00  0.39999999673E+01  0.40000000000E+01  0.51109989000E-03 0. -1.
     -623   -1    0    0    0    0  0.00000000000E+00  0.00000000000E+00  0.12525980253E-10  0.17130000000E+03  0.17130000000E+03 0.  1.
       11    1    1    2    0    0  0.93496903026E-03 -0.29794174436E-02  0.24623979490E-01  0.24826451305E-01  0.51109989000E-03 0. -1.
     -623    1    1    2    0    0 -0.91461890383E-03 -0.32119975398E-02  0.21748181174E-03  0.17130000003E+03  0.17130000000E+03 0.  1.
      622    1    1    2    0    0 -0.20350125703E-04  0.61914149859E-02  0.39751585092E+01  0.39751735192E+01  0.90000000000E-02 0. -1.
</event>
<event>
 5   0  0.6135700E+09  0.9118800E+02  0.7818608E-02  0.1180000E+00
       11   -1    0    0    0    0  0.00000000000E+00  0.00000000000E+00  0.39999999673E+01  0.40000000000E+01  0.51109989000E-03 0. -1.
     -623   -1    0    0    0    0  0.00000000000E+00  0.00000000000E+00  0.12525980253E-10  0.17130000000E+03  0.17130000000E+03 0.  1.
       11    1    1    2    0    0 -0.11907456018E-03 -0.66202117628E-03  0.14781786928E+00  0.14782028328E+00  0.51109989000E-03 0. -1.
     -623    1    1    2    0    0  0.28245159131E-04  0.17826650268E-03  0.12926446067E-04  0.17130000000E+03  0.17130000000E+03 0.  1.
      622    1    1    2    0    0  0.90829401049E-04  0.48375467360E-03  0.38521691716E+01  0.38521797166E+01  0.90000000000E-02 0. -1.
</event>
<event>
 5   0  0.6135700E+09  0.9118800E+02  0.7818608E-02  0.1180000E+00
       11   -1    0    0    0    0  0.00000000000E+00  0.00000000000E+00  0.39999999673E+01  0.40000000000E+01  0.51109989000E-03 0.  1.
     -623   -1    0    0    0    0  0.00000000000E+00  0.00000000000E+00  0.12525980253E-10  0.17130000000E+03  0.17130000000E+03 0.  1.
       11    1    1    2    0    0 -0.33405638241E-02  0.37198355223E-02  0.11079367706E+01  0.11079481691E+01  0.51109989000E-03 0.  1.
     -623    1    1    2    0    0 -0.31664223876E-03  0.35096029870E-03  0.30547862335E-04  0.17130000000E+03  0.17130000000E+03 0.  1.
      622    1    1    2    0    0  0.36572060629E-02 -0.40707958210E-02  0.28920326489E+01  0.28920518302E+01  0.90000000000E-02 0.  0.
</event>
<event>
 5   0  0.6135700E+09  0.9118800E+02  0.7818608E-02  0.1180000E+00
       11   -1    0    0    0    0  0.00000000000E+00  0.00000000000E+00  0.39999999673E+01  0.40000000000E+01  0.51109989000E-03 0.  1.
     -623   -1    0    0    0    0  0.00000000000E+00  0.00000000000E+00  0.12525980253E-10  0.17130000000E+03  0.17130000000E+03 0. -1.
       11    1    1    2    0    0 -0.12315957787E-02 -0.69726467101E-04  0.33813535213E-02  0.36354453489E-02  0.51109989000E-03 0.  1.
     -623    1    1    2    0    0  0.13067084084E-02 -0.78979642095E-03  0.26429355706E-03  0.17130000001E+03  0.17130000000E+03 0. -1.
      622    1    1    2    0    0 -0.75112629716E-04  0.85952288805E-03  0.39963543203E+01  0.39963645476E+01  0.90000000000E-02 0.  1.
</event>
<event>
 5   0  0.6135700E+09  0.9118800E+02  0.7818608E-02  0.1180000E+00
       11   -1    0    0    0    0  0.00000000000E+00  0.00000000000E+00  0.39999999673E+01  0.40000000000E+01  0.51109989000E-03 0.  1.
     -623   -1    0    0    0    0  0.00000000000E+00  0.00000000000E+00  0.12525980253E-10  0.17130000000E+03  0.17130000000E+03 0.  1.
       11    1    1    2    0    0 -0.83124020359E-03 -0.96328585302E-03  0.39588464880E+00  0.39588702335E+00  0.51109989000E-03 0.  1.
     -623    1    1    2    0    0 -0.15223075720E-03 -0.20259147162E-03  0.13902032832E-04  0.17130000000E+03  0.17130000000E+03 0.  1.
      622    1    1    2    0    0  0.98347096079E-03  0.11658773246E-02  0.36041014165E+01  0.36041129765E+01  0.90000000000E-02 0.  1.
</event>
<event>
 5   0  0.6135700E+09  0.9118800E+02  0.7818608E-02  0.1180000E+00
       11   -1    0    0    0    0  0.00000000000E+00  0.00000000000E+00  0.39999999673E+01  0.40000000000E+01  0.51109989000E-03 0. -1.
     -623   -1    0    0    0    0  0.00000000000E+00  0.00000000000E+00  0.12525980253E-10  0.17130000000E+03  0.17130000000E+03 0. -1.
       11    1    1    2    0    0 -0.11990368183E-02  0.52065477561E-03  0.94625315018E-01  0.94635723889E-01  0.51109989000E-03 0. -1.
     -623    1    1    2    0    0  0.64364906276E-04  0.26785168203E-04  0.20949816113E-04  0.17130000000E+03  0.17130000000E+03 0. -1.
      622    1    1    2    0    0  0.11346719117E-02 -0.54743994396E-03  0.39053537238E+01  0.39053642974E+01  0.90000000000E-02 0. -1.
</event>
<event>
 5   0  0.6135700E+09  0.9118800E+02  0.7818608E-02  0.1180000E+00
       11   -1    0    0    0    0  0.00000000000E+00  0.00000000000E+00  0.39999999673E+01  0.40000000000E+01  0.51109989000E-03 0. -1.
     -623   -1    0    0    0    0  0.00000000000E+00  0.00000000000E+00  0.12525980253E-10  0.17130000000E+03  0.17130000000E+03 0. -1.
       11    1    1    2    0    0 -0.34192563228E-03 -0.79273842625E-03  0.23067995790E-01  0.23089802926E-01  0.51109989000E-03 0. -1.
     -623    1    1    2    0    0  0.87852482270E-03  0.44847465696E-03  0.32012238821E-04  0.17130000000E+03  0.17130000000E+03 0. -1.
      622    1    1    2    0    0 -0.53659919042E-03  0.34426376928E-03  0.39768999593E+01  0.39769101942E+01  0.90000000000E-02 0. -1.
</event>
<event>
 5   0  0.6135700E+09  0.9118800E+02  0.7818608E-02  0.1180000E+00
       11   -1    0    0    0    0  0.00000000000E+00  0.00000000000E+00  0.39999999673E+01  0.40000000000E+01  0.51109989000E-03 0. -1.
     -623   -1    0    0    0    0  0.00000000000E+00  0.00000000000E+00  0.12525980253E-10  0.17130000000E+03  0.17130000000E+03 0.  1.
       11    1    1    2    0    0 -0.80049349746E-02 -0.26612507537E-02  0.82737812340E-01  0.83168311590E-01  0.51109989000E-03 0. -1.
     -623    1    1    2    0    0  0.44708902824E-02 -0.50576119948E-02  0.45014032549E-03  0.17130000013E+03  0.17130000000E+03 0.  1.
      622    1    1    2    0    0  0.35340446922E-02  0.77188627484E-02  0.39168120147E+01  0.39168315548E+01  0.90000000000E-02 0. -1.
</event>
<event>
 5   0  0.6135700E+09  0.9118800E+02  0.7818608E-02  0.1180000E+00
       11   -1    0    0    0    0  0.00000000000E+00  0.00000000000E+00  0.39999999673E+01  0.40000000000E+01  0.51109989000E-03 0. -1.
     -623   -1    0    0    0    0  0.00000000000E+00  0.00000000000E+00  0.12525980253E-10  0.17130000000E+03  0.17130000000E+03 0.  1.
       11    1    1    2    0    0  0.20909415567E-03 -0.93336862783E-03  0.15499181932E-01  0.15537076933E-01  0.51109989000E-03 0.  1.
     -623    1    1    2    0    0  0.88018272243E-04 -0.85477157244E-04  0.48168245615E-04  0.17130000000E+03  0.17130000000E+03 0.  1.
      622    1    1    2    0    0 -0.29711242791E-03  0.10188457851E-02  0.39844526172E+01  0.39844629230E+01  0.90000000000E-02 0. -1.
</event>
<event>
 5   0  0.6135700E+09  0.9118800E+02  0.7818608E-02  0.1180000E+00
       11   -1    0    0    0    0  0.00000000000E+00  0.00000000000E+00  0.39999999673E+01  0.40000000000E+01  0.51109989000E-03 0. -1.
     -623   -1    0    0    0    0  0.00000000000E+00  0.00000000000E+00  0.12525980253E-10  0.17130000000E+03  0.17130000000E+03 0.  1.
       11    1    1    2    0    0 -0.15299172768E-02 -0.59322960829E-02  0.38283815444E+00  0.38288751155E+00  0.51109989000E-03 0. -1.
     -623    1    1    2    0    0  0.81935547542E-03 -0.16895463050E-03  0.65738848006E-04  0.17130000000E+03  0.17130000000E+03 0.  1.
      622    1    1    2    0    0  0.71056179925E-03  0.61012507139E-02  0.36170960846E+01  0.36171124969E+01  0.90000000000E-02 0. -1.
</event>
<event>
 5   0  0.6135700E+09  0.9118800E+02  0.7818608E-02  0.1180000E+00
       11   -1    0    0    0    0  0.00000000000E+00  0.00000000000E+00  0.39999999673E+01  0.40000000000E+01  0.51109989000E-03 0.  1.
     -623   -1    0    0    0    0  0.00000000000E+00  0.00000000000E+00  0.12525980253E-10  0.17130000000E+03  0.17130000000E+03 0.  1.
       11    1    1    2    0    0 -0.92471495568E-05 -0.47948258646E-04  0.27112531913E-01  0.27117392813E-01  0.51109989000E-03 0.  1.
     -623    1    1    2    0    0  0.65539863256E-03  0.25448779206E-03  0.15081739500E-04  0.17130000000E+03  0.17130000000E+03 0.  1.
      622    1    1    2    0    0 -0.64615148300E-03 -0.20653953341E-03  0.39728723537E+01  0.39728826057E+01  0.90000000000E-02 0.  1.
</event>
<event>
 5   0  0.6135700E+09  0.9118800E+02  0.7818608E-02  0.1180000E+00
       11   -1    0    0    0    0  0.00000000000E+00  0.00000000000E+00  0.39999999673E+01  0.40000000000E+01  0.51109989000E-03 0. -1.
     -623   -1    0    0    0    0  0.00000000000E+00  0.00000000000E+00  0.12525980253E-10  0.17130000000E+03  0.17130000000E+03 0.  1.
       11    1    1    2    0    0 -0.38003670804E-02  0.34439496830E-02  0.46811400494E+00  0.46814237837E+00  0.51109989000E-03 0. -1.
     -623    1    1    2    0    0  0.63481904046E-03 -0.74267102280E-03  0.42262287285E-04  0.17130000000E+03  0.17130000000E+03 0.  1.
      622    1    1    2    0    0  0.31655480395E-02 -0.27012786598E-02  0.35318437025E+01  0.35318576212E+01  0.90000000000E-02 0. -1.
</event>
<event>
 5   0  0.6135700E+09  0.9118800E+02  0.7818608E-02  0.1180000E+00
       11   -1    0    0    0    0  0.00000000000E+00  0.00000000000E+00  0.39999999673E+01  0.40000000000E+01  0.51109989000E-03 0.  1.
     -623   -1    0    0    0    0  0.00000000000E+00  0.00000000000E+00  0.12525980253E-10  0.17130000000E+03  0.17130000000E+03 0.  1.
       11    1    1    2    0    0 -0.32357103237E-02 -0.18711027120E-02  0.99909133378E+00  0.99909845626E+00  0.51109989000E-03 0.  1.
     -623    1    1    2    0    0  0.10232369744E-03 -0.10533631239E-04  0.22811633354E-04  0.17130000000E+03  0.17130000000E+03 0.  1.
      622    1    1    2    0    0  0.31333866262E-02  0.18816363432E-02  0.30008858219E+01  0.30009015437E+01  0.90000000000E-02 0.  1.
</event>
<event>
 5   0  0.6135700E+09  0.9118800E+02  0.7818608E-02  0.1180000E+00
       11   -1    0    0    0    0  0.00000000000E+00  0.00000000000E+00  0.39999999673E+01  0.40000000000E+01  0.51109989000E-03 0. -1.
     -623   -1    0    0    0    0  0.00000000000E+00  0.00000000000E+00  0.12525980253E-10  0.17130000000E+03  0.17130000000E+03 0.  1.
       11    1    1    2    0    0 -0.71047125633E-04 -0.53496893110E-03  0.94008056069E-01  0.94010994402E-01  0.51109989000E-03 0. -1.
     -623    1    1    2    0    0 -0.60638869275E-05  0.21171017831E-04  0.13308955220E-04  0.17130000000E+03  0.17130000000E+03 0.  1.
      622    1    1    2    0    0  0.77111012555E-04  0.51379791329E-03  0.39059785985E+01  0.39059890018E+01  0.90000000000E-02 0. -1.
</event>
<event>
 5   0  0.6135700E+09  0.9118800E+02  0.7818608E-02  0.1180000E+00
       11   -1    0    0    0    0  0.00000000000E+00  0.00000000000E+00  0.39999999673E+01  0.40000000000E+01  0.51109989000E-03 0. -1.
     -623   -1    0    0    0    0  0.00000000000E+00  0.00000000000E+00  0.12525980253E-10  0.17130000000E+03  0.17130000000E+03 0. -1.
       11    1    1    2    0    0 -0.18247929755E-03 -0.56226713424E-03  0.11770410021E-01  0.11796322231E-01  0.51109989000E-03 0. -1.
     -623    1    1    2    0    0 -0.41473071110E-03  0.14338952728E-02  0.36181000497E-04  0.17130000001E+03  0.17130000000E+03 0. -1.
      622    1    1    2    0    0  0.59721000977E-03 -0.87162814243E-03  0.39881933871E+01  0.39882036821E+01  0.90000000000E-02 0. -1.
</event>
<event>
 5   0  0.6135700E+09  0.9118800E+02  0.7818608E-02  0.1180000E+00
       11   -1    0    0    0    0  0.00000000000E+00  0.00000000000E+00  0.39999999673E+01  0.40000000000E+01  0.51109989000E-03 0.  1.
     -623   -1    0    0    0    0  0.00000000000E+00  0.00000000000E+00  0.12525980253E-10  0.17130000000E+03  0.17130000000E+03 0. -1.
       11    1    1    2    0    0 -0.82784866587E-04  0.96901039127E-03  0.40238807567E+00  0.40238957554E+00  0.51109989000E-03 0.  1.
     -623    1    1    2    0    0 -0.42795794826E-03 -0.71648967353E-03  0.12771864899E-04  0.17130000000E+03  0.17130000000E+03 0. -1.
      622    1    1    2    0    0  0.51074281531E-03 -0.25252071696E-03  0.35975991242E+01  0.35976104268E+01  0.90000000000E-02 0.  1.
</event>
<event>
 5   0  0.6135700E+09  0.9118800E+02  0.7818608E-02  0.1180000E+00
       11   -1    0    0    0    0  0.00000000000E+00  0.00000000000E+00  0.39999999673E+01  0.40000000000E+01  0.51109989000E-03 0.  1.
     -623   -1    0    0    0    0  0.00000000000E+00  0.00000000000E+00  0.12525980253E-10  0.17130000000E+03  0.17130000000E+03 0.  1.
       11    1    1    2    0    0 -0.75152396553E-03 -0.12480466173E-02  0.70054658659E-02  0.71735753090E-02  0.51109989000E-03 0. -1.
     -623    1    1    2    0    0  0.60866877470E-03  0.77265434435E-03  0.17825377912E-03  0.17130000000E+03  0.17130000000E+03 0.  1.
      622    1    1    2    0    0  0.14285519084E-03  0.47539227296E-03  0.39928162477E+01  0.39928264218E+01  0.90000000000E-02 0.  1.
</event>
<event>
 5   0  0.6135700E+09  0.9118800E+02  0.7818608E-02  0.1180000E+00
       11   -1    0    0    0    0  0.00000000000E+00  0.00000000000E+00  0.39999999673E+01  0.40000000000E+01  0.51109989000E-03 0.  1.
     -623   -1    0    0    0    0  0.00000000000E+00  0.00000000000E+00  0.12525980253E-10  0.17130000000E+03  0.17130000000E+03 0.  1.
       11    1    1    2    0    0 -0.11484285167E-02  0.96022476087E-03  0.10891327573E+01  0.10891339060E+01  0.51109989000E-03 0.  1.
     -623    1    1    2    0    0  0.47087567718E-03  0.49689452925E-03  0.15474391270E-04  0.17130000000E+03  0.17130000000E+03 0.  1.
      622    1    1    2    0    0  0.67755283955E-03 -0.14571192901E-02  0.29108517357E+01  0.29108660926E+01  0.90000000000E-02 0.  1.
</event>
<event>
 5   0  0.6135700E+09  0.9118800E+02  0.7818608E-02  0.1180000E+00
       11   -1    0    0    0    0  0.00000000000E+00  0.00000000000E+00  0.39999999673E+01  0.40000000000E+01  0.51109989000E-03 0.  1.
     -623   -1    0    0    0    0  0.00000000000E+00  0.00000000000E+00  0.12525980253E-10  0.17130000000E+03  0.17130000000E+03 0. -1.
       11    1    1    2    0    0  0.36752671100E-02  0.20211213699E-02  0.51624184389E-01  0.51796816066E-01  0.51109989000E-03 0.  1.
     -623    1    1    2    0    0  0.31340661020E-03 -0.25243210921E-04  0.18537653061E-03  0.17130000000E+03  0.17130000000E+03 0. -1.
      622    1    1    2    0    0 -0.39886737202E-02 -0.19958781589E-02  0.39481904064E+01  0.39482031835E+01  0.90000000000E-02 0.  1.
</event>
<event>
 5   0  0.6135700E+09  0.9118800E+02  0.7818608E-02  0.1180000E+00
       11   -1    0    0    0    0  0.00000000000E+00  0.00000000000E+00  0.39999999673E+01  0.40000000000E+01  0.51109989000E-03 0.  1.
     -623   -1    0    0    0    0  0.00000000000E+00  0.00000000000E+00  0.12525980253E-10  0.17130000000E+03  0.17130000000E+03 0. -1.
       11    1    1    2    0    0 -0.93679309427E-03  0.44649007597E-04  0.12243960249E+00  0.12244426101E+00  0.51109989000E-03 0.  1.
     -623    1    1    2    0    0  0.20578607920E-03 -0.30077936363E-03  0.15148375302E-04  0.17130000000E+03  0.17130000000E+03 0. -1.
      622    1    1    2    0    0  0.73100701507E-03  0.25613035604E-03  0.38775452165E+01  0.38775557386E+01  0.90000000000E-02 0.  0.
</event>
<event>
 5   0  0.6135700E+09  0.9118800E+02  0.7818608E-02  0.1180000E+00
       11   -1    0    0    0    0  0.00000000000E+00  0.00000000000E+00  0.39999999673E+01  0.40000000000E+01  0.51109989000E-03 0. -1.
     -623   -1    0    0    0    0  0.00000000000E+00  0.00000000000E+00  0.12525980253E-10  0.17130000000E+03  0.17130000000E+03 0.  1.
       11    1    1    2    0    0  0.10121056344E-02 -0.58750429840E-03  0.32084224505E-01  0.32109627907E-01  0.51109989000E-03 0. -1.
     -623    1    1    2    0    0 -0.15705750542E-02  0.19664633882E-02  0.35875117415E-04  0.17130000002E+03  0.17130000000E+03 0.  1.
      622    1    1    2    0    0  0.55846942242E-03 -0.13789590931E-02  0.39678798744E+01  0.39678903603E+01  0.90000000000E-02 0. -1.
</event>
<event>
 5   0  0.6135700E+09  0.9118800E+02  0.7818608E-02  0.1180000E+00
       11   -1    0    0    0    0  0.00000000000E+00  0.00000000000E+00  0.39999999673E+01  0.40000000000E+01  0.51109989000E-03 0.  1.
     -623   -1    0    0    0    0  0.00000000000E+00  0.00000000000E+00  0.12525980253E-10  0.17130000000E+03  0.17130000000E+03 0. -1.
       11    1    1    2    0    0  0.10100597013E-02 -0.29189581346E-03  0.46456620090E-01  0.46471326612E-01  0.51109989000E-03 0.  1.
     -623    1    1    2    0    0 -0.72007448659E-03 -0.35296117686E-03  0.24983013255E-04  0.17130000000E+03  0.17130000000E+03 0. -1.
      622    1    1    2    0    0 -0.28998521608E-03  0.64485698965E-03  0.39535183566E+01  0.39535286639E+01  0.90000000000E-02 0.  1.
</event>
<event>
 5   0  0.6135700E+09  0.9118800E+02  0.7818608E-02  0.1180000E+00
       11   -1    0    0    0    0  0.00000000000E+00  0.00000000000E+00  0.39999999673E+01  0.40000000000E+01  0.51109989000E-03 0.  1.
     -623   -1    0    0    0    0  0.00000000000E+00  0.00000000000E+00  0.12525980253E-10  0.17130000000E+03  0.17130000000E+03 0. -1.
       11    1    1    2    0    0  0.70662599486E-02 -0.83264400983E-03  0.11885360830E+01  0.11885574900E+01  0.51109989000E-03 0.  1.
     -623    1    1    2    0    0 -0.73202459373E-03 -0.24349206879E-02  0.44833215774E-04  0.17130000002E+03  0.17130000000E+03 0. -1.
      622    1    1    2    0    0 -0.63342353549E-02  0.32675646977E-02  0.28114190511E+01  0.28114424911E+01  0.90000000000E-02 0.  1.
</event>
<event>
 5   0  0.6135700E+09  0.9118800E+02  0.7818608E-02  0.1180000E+00
       11   -1    0    0    0    0  0.00000000000E+00  0.00000000000E+00  0.39999999673E+01  0.40000000000E+01  0.51109989000E-03 0. -1.
     -623   -1    0    0    0    0  0.00000000000E+00  0.00000000000E+00  0.12525980253E-10  0.17130000000E+03  0.17130000000E+03 0. -1.
       11    1    1    2    0    0 -0.23792948346E-02 -0.20054430939E-02  0.54335140379E+00  0.54336055439E+00  0.51109989000E-03 0. -1.
     -623    1    1    2    0    0  0.64353657034E-03 -0.83630465655E-03  0.22441747743E-04  0.17130000000E+03  0.17130000000E+03 0. -1.
      622    1    1    2    0    0  0.17357582649E-02  0.28417477496E-02  0.34566261175E+01  0.34566394380E+01  0.90000000000E-02 0. -1.
</event>
<event>
 5   0  0.6135700E+09  0.9118800E+02  0.7818608E-02  0.1180000E+00
       11   -1    0    0    0    0  0.00000000000E+00  0.00000000000E+00  0.39999999673E+01  0.40000000000E+01  0.51109989000E-03 0. -1.
     -623   -1    0    0    0    0  0.00000000000E+00  0.00000000000E+00  0.12525980253E-10  0.17130000000E+03  0.17130000000E+03 0.  1.
       11    1    1    2    0    0 -0.12666235358E-02 -0.10413344453E-02  0.18253373989E+00  0.18254182023E+00  0.51109989000E-03 0. -1.
     -623    1    1    2    0    0  0.63712807946E-03 -0.43643863620E-03  0.18996543478E-04  0.17130000000E+03  0.17130000000E+03 0.  1.
      622    1    1    2    0    0  0.62949545633E-03  0.14777730815E-02  0.38174472309E+01  0.38174581780E+01  0.90000000000E-02 0. -1.
</event>
<event>
 5   0  0.6135700E+09  0.9118800E+02  0.7818608E-02  0.1180000E+00
       11   -1    0    0    0    0  0.00000000000E+00  0.00000000000E+00  0.39999999673E+01  0.40000000000E+01  0.51109989000E-03 0.  1.
     -623   -1    0    0    0    0  0.00000000000E+00  0.00000000000E+00  0.12525980253E-10  0.17130000000E+03  0.17130000000E+03 0. -1.
       11    1    1    2    0    0 -0.22244817860E-02  0.23779431043E-02  0.99566571200E+00  0.99567116771E+00  0.51109989000E-03 0.  1.
     -623    1    1    2    0    0  0.52550105667E-02 -0.52100068428E-02  0.21926815498E-04  0.17130000016E+03  0.17130000000E+03 0. -1.
      622    1    1    2    0    0 -0.30305288186E-02  0.28320637760E-02  0.30043123573E+01  0.30043287012E+01  0.90000000000E-02 0.  1.
</event>
<event>
 5   0  0.6135700E+09  0.9118800E+02  0.7818608E-02  0.1180000E+00
       11   -1    0    0    0    0  0.00000000000E+00  0.00000000000E+00  0.39999999673E+01  0.40000000000E+01  0.51109989000E-03 0. -1.
     -623   -1    0    0    0    0  0.00000000000E+00  0.00000000000E+00  0.12525980253E-10  0.17130000000E+03  0.17130000000E+03 0. -1.
       11    1    1    2    0    0  0.17196823423E-03 -0.38395856598E-03  0.17281063850E-01  0.17293738408E-01  0.51109989000E-03 0. -1.
     -623    1    1    2    0    0 -0.18712975405E-03  0.65603472011E-04  0.22823764913E-04  0.17130000000E+03  0.17130000000E+03 0. -1.
      622    1    1    2    0    0  0.15161520888E-04  0.31835509359E-03  0.39826961027E+01  0.39827062844E+01  0.90000000000E-02 0. -1.
</event>
<event>
 5   0  0.6135700E+09  0.9118800E+02  0.7818608E-02  0.1180000E+00
       11   -1    0    0    0    0  0.00000000000E+00  0.00000000000E+00  0.39999999673E+01  0.40000000000E+01  0.51109989000E-03 0. -1.
     -623   -1    0    0    0    0  0.00000000000E+00  0.00000000000E+00  0.12525980253E-10  0.17130000000E+03  0.17130000000E+03 0. -1.
       11    1    1    2    0    0  0.35734720061E-03  0.24661395392E-02  0.45564966386E+00  0.45565676439E+00  0.51109989000E-03 0. -1.
     -623    1    1    2    0    0  0.95799984487E-04 -0.10147643652E-03  0.19312412220E-04  0.17130000000E+03  0.17130000000E+03 0. -1.
      622    1    1    2    0    0 -0.45314718475E-03 -0.23646631030E-02  0.35443309766E+01  0.35443432211E+01  0.90000000000E-02 0.  0.
</event>
<event>
 5   0  0.6135700E+09  0.9118800E+02  0.7818608E-02  0.1180000E+00
       11   -1    0    0    0    0  0.00000000000E+00  0.00000000000E+00  0.39999999673E+01  0.40000000000E+01  0.51109989000E-03 0.  1.
     -623   -1    0    0    0    0  0.00000000000E+00  0.00000000000E+00  0.12525980253E-10  0.17130000000E+03  0.17130000000E+03 0. -1.
       11    1    1    2    0    0  0.54513357994E-03  0.26478141603E-02  0.11545998305E+00  0.11549275735E+00  0.51109989000E-03 0.  1.
     -623    1    1    2    0    0  0.47354934156E-03  0.28784344018E-03  0.44411469031E-04  0.17130000000E+03  0.17130000000E+03 0. -1.
      622    1    1    2    0    0 -0.10186829219E-02 -0.29356576008E-02  0.38844955761E+01  0.38845072451E+01  0.90000000000E-02 0.  1.
</event>
<event>
 5   0  0.6135700E+09  0.9118800E+02  0.7818608E-02  0.1180000E+00
       11   -1    0    0    0    0  0.00000000000E+00  0.00000000000E+00  0.39999999673E+01  0.40000000000E+01  0.51109989000E-03 0.  1.
     -623   -1    0    0    0    0  0.00000000000E+00  0.00000000000E+00  0.12525980253E-10  0.17130000000E+03  0.17130000000E+03 0. -1.
       11    1    1    2    0    0 -0.44529013522E-03  0.46771167991E-03  0.20460320688E-01  0.20476889004E-01  0.51109989000E-03 0.  1.
     -623    1    1    2    0    0  0.12189378939E-03  0.35229285075E-04  0.26757758495E-04  0.17130000000E+03  0.17130000000E+03 0. -1.
      622    1    1    2    0    0  0.32339634573E-03 -0.50294096501E-03  0.39795128924E+01  0.39795231144E+01  0.90000000000E-02 0.  1.
</event>
<event>
 5   0  0.6135700E+09  0.9118800E+02  0.7818608E-02  0.1180000E+00
       11   -1    0    0    0    0  0.00000000000E+00  0.00000000000E+00  0.39999999673E+01  0.40000000000E+01  0.51109989000E-03 0. -1.
     -623   -1    0    0    0    0  0.00000000000E+00  0.00000000000E+00  0.12525980253E-10  0.17130000000E+03  0.17130000000E+03 0. -1.
       11    1    1    2    0    0 -0.18717099276E-02 -0.11760014904E-02  0.10529344217E+01  0.10529368660E+01  0.51109989000E-03 0. -1.
     -623    1    1    2    0    0  0.64486350170E-03  0.55997551287E-03  0.16476123269E-04  0.17130000000E+03  0.17130000000E+03 0. -1.
      622    1    1    2    0    0  0.12268464259E-02  0.61602597752E-03  0.29470490696E+01  0.29470631318E+01  0.90000000000E-02 0. -1.
</event>
<event>
 5   0  0.6135700E+09  0.9118800E+02  0.7818608E-02  0.1180000E+00
       11   -1    0    0    0    0  0.00000000000E+00  0.00000000000E+00  0.39999999673E+01  0.40000000000E+01  0.51109989000E-03 0. -1.
     -623   -1    0    0    0    0  0.00000000000E+00  0.00000000000E+00  0.12525980253E-10  0.17130000000E+03  0.17130000000E+03 0. -1.
       11    1    1    2    0    0  0.36747838640E-03 -0.19212581150E-02  0.15977835184E+00  0.15979114248E+00  0.51109989000E-03 0. -1.
     -623    1    1    2    0    0 -0.27218167263E-04 -0.65998440266E-03  0.24188167633E-04  0.17130000000E+03  0.17130000000E+03 0. -1.
      622    1    1    2    0    0 -0.34026021907E-03  0.25812425191E-02  0.38401974364E+01  0.38402088653E+01  0.90000000000E-02 0. -1.
</event>
<event>
 5   0  0.6135700E+09  0.9118800E+02  0.7818608E-02  0.1180000E+00
       11   -1    0    0    0    0  0.00000000000E+00  0.00000000000E+00  0.39999999673E+01  0.40000000000E+01  0.51109989000E-03 0. -1.
     -623   -1    0    0    0    0  0.00000000000E+00  0.00000000000E+00  0.12525980253E-10  0.17130000000E+03  0.17130000000E+03 0. -1.
       11    1    1    2    0    0  0.36410038827E-03 -0.89377838813E-03  0.23115372932E-01  0.23141155930E-01  0.51109989000E-03 0. -1.
     -623    1    1    2    0    0 -0.84447006189E-04 -0.67519537661E-04  0.36060342574E-04  0.17130000000E+03  0.17130000000E+03 0. -1.
      622    1    1    2    0    0 -0.27965338183E-03  0.96129792600E-03  0.39768485461E+01  0.39768588560E+01  0.90000000000E-02 0. -1.
</event>
<event>
 5   0  0.6135700E+09  0.9118800E+02  0.7818608E-02  0.1180000E+00
       11   -1    0    0    0    0  0.00000000000E+00  0.00000000000E+00  0.39999999673E+01  0.40000000000E+01  0.51109989000E-03 0. -1.
     -623   -1    0    0    0    0  0.00000000000E+00  0.00000000000E+00  0.12525980253E-10  0.17130000000E+03  0.17130000000E+03 0.  1.
       11    1    1    2    0    0 -0.27359136944E-01  0.14205328859E-01  0.10672288992E+01  0.10676741536E+01  0.51109989000E-03 0. -1.
     -623    1    1    2    0    0  0.32965145201E-02 -0.15908182433E-01  0.55903003056E-03  0.17130000077E+03  0.17130000000E+03 0.  1.
      622    1    1    2    0    0  0.24062622424E-01  0.17028535740E-02  0.29322120381E+01  0.29323250751E+01  0.90000000000E-02 0. -1.
</event>
<event>
 5   0  0.6135700E+09  0.9118800E+02  0.7818608E-02  0.1180000E+00
       11   -1    0    0    0    0  0.00000000000E+00  0.00000000000E+00  0.39999999673E+01  0.40000000000E+01  0.51109989000E-03 0. -1.
     -623   -1    0    0    0    0  0.00000000000E+00  0.00000000000E+00  0.12525980253E-10  0.17130000000E+03  0.17130000000E+03 0. -1.
       11    1    1    2    0    0 -0.60090086025E-03 -0.42062106493E-03  0.17144237379E-01  0.17167530467E-01  0.51109989000E-03 0.  1.
     -623    1    1    2    0    0  0.17632509123E-03  0.66937212888E-04  0.33467544490E-04  0.17130000000E+03  0.17130000000E+03 0. -1.
      622    1    1    2    0    0  0.42457576843E-03  0.35368385182E-03  0.39828222759E+01  0.39828324829E+01  0.90000000000E-02 0. -1.
</event>
<event>
 5   0  0.6135700E+09  0.9118800E+02  0.7818608E-02  0.1180000E+00
       11   -1    0    0    0    0  0.00000000000E+00  0.00000000000E+00  0.39999999673E+01  0.40000000000E+01  0.51109989000E-03 0.  1.
     -623   -1    0    0    0    0  0.00000000000E+00  0.00000000000E+00  0.12525980253E-10  0.17130000000E+03  0.17130000000E+03 0. -1.
       11    1    1    2    0    0  0.50245884856E-03 -0.30910127870E-03  0.16977089315E+00  0.16977268741E+00  0.51109989000E-03 0.  1.
     -623    1    1    2    0    0 -0.12623080231E-04 -0.35175750946E-04  0.12382221550E-04  0.17130000000E+03  0.17130000000E+03 0. -1.
      622    1    1    2    0    0 -0.48983576833E-03  0.34427702965E-03  0.38302166920E+01  0.38302273126E+01  0.90000000000E-02 0.  1.
</event>
<event>
 5   0  0.6135700E+09  0.9118800E+02  0.7818608E-02  0.1180000E+00
       11   -1    0    0    0    0  0.00000000000E+00  0.00000000000E+00  0.39999999673E+01  0.40000000000E+01  0.51109989000E-03 0.  1.
     -623   -1    0    0    0    0  0.00000000000E+00  0.00000000000E+00  0.12525980253E-10  0.17130000000E+03  0.17130000000E+03 0. -1.
       11    1    1    2    0    0 -0.24679049718E-02 -0.50983523725E-02  0.53233761390E+00  0.53236799316E+00  0.51109989000E-03 0.  1.
     -623    1    1    2    0    0  0.16107612728E-04  0.59151929454E-04  0.46554403014E-04  0.17130000000E+03  0.17130000000E+03 0. -1.
      622    1    1    2    0    0  0.24517973591E-02  0.50392004430E-02  0.34676157991E+01  0.34676320068E+01  0.90000000000E-02 0.  1.
</event>
<event>
 5   0  0.6135700E+09  0.9118800E+02  0.7818608E-02  0.1180000E+00
       11   -1    0    0    0    0  0.00000000000E+00  0.00000000000E+00  0.39999999673E+01  0.40000000000E+01  0.51109989000E-03 0.  1.
     -623   -1    0    0    0    0  0.00000000000E+00  0.00000000000E+00  0.12525980253E-10  0.17130000000E+03  0.17130000000E+03 0. -1.
       11    1    1    2    0    0 -0.91074070737E-02  0.36266036222E-02  0.11939977810E+01  0.11940381314E+01  0.51109989000E-03 0.  1.
     -623    1    1    2    0    0 -0.29799983117E-02 -0.79930474365E-03  0.82238697587E-04  0.17130000003E+03  0.17130000000E+03 0. -1.
      622    1    1    2    0    0  0.12087405387E-01 -0.28272988781E-02  0.28059199500E+01  0.28059618431E+01  0.90000000000E-02 0.  1.
</event>
<event>
 5   0  0.6135700E+09  0.9118800E+02  0.7818608E-02  0.1180000E+00
       11   -1    0    0    0    0  0.00000000000E+00  0.00000000000E+00  0.39999999673E+01  0.40000000000E+01  0.51109989000E-03 0. -1.
     -623   -1    0    0    0    0  0.00000000000E+00  0.00000000000E+00  0.12525980253E-10  0.17130000000E+03  0.17130000000E+03 0. -1.
       11    1    1    2    0    0 -0.15658303784E-04 -0.23041494352E-03  0.46897374801E-01  0.46900728380E-01  0.51109989000E-03 0. -1.
     -623    1    1    2    0    0 -0.13851870362E-03  0.21888777587E-03  0.13569297688E-04  0.17130000000E+03  0.17130000000E+03 0. -1.
      622    1    1    2    0    0  0.15417700728E-03  0.11527167846E-04  0.39530890196E+01  0.39530992678E+01  0.90000000000E-02 0. -1.
</event>
<event>
 5   0  0.6135700E+09  0.9118800E+02  0.7818608E-02  0.1180000E+00
       11   -1    0    0    0    0  0.00000000000E+00  0.00000000000E+00  0.39999999673E+01  0.40000000000E+01  0.51109989000E-03 0.  1.
     -623   -1    0    0    0    0  0.00000000000E+00  0.00000000000E+00  0.12525980253E-10  0.17130000000E+03  0.17130000000E+03 0.  1.
       11    1    1    2    0    0  0.10372995444E-01 -0.16792914698E-02  0.38251339758E+00  0.38265804527E+00  0.51109989000E-03 0.  1.
     -623    1    1    2    0    0 -0.80489191320E-02 -0.51702273251E-02  0.16330980728E-03  0.17130000027E+03  0.17130000000E+03 0.  1.
      622    1    1    2    0    0 -0.23240763051E-02  0.68495187991E-02  0.36173232632E+01  0.36173416908E+01  0.90000000000E-02 0.  1.
</event>
<event>
 5   0  0.6135700E+09  0.9118800E+02  0.7818608E-02  0.1180000E+00
       11   -1    0    0    0    0  0.00000000000E+00  0.00000000000E+00  0.39999999673E+01  0.40000000000E+01  0.51109989000E-03 0.  1.
     -623   -1    0    0    0    0  0.00000000000E+00  0.00000000000E+00  0.12525980253E-10  0.17130000000E+03  0.17130000000E+03 0. -1.
       11    1    1    2    0    0  0.88011132523E-03 -0.75646103866E-03  0.15098244929E-01  0.15151404263E-01  0.51109989000E-03 0.  1.
     -623    1    1    2    0    0 -0.12831517921E-03 -0.10102358859E-03  0.63453472573E-04  0.17130000000E+03  0.17130000000E+03 0. -1.
      622    1    1    2    0    0 -0.75179614603E-03  0.85748462725E-03  0.39848382690E+01  0.39848485956E+01  0.90000000000E-02 0.  1.
</event>
<event>
 5   0  0.6135700E+09  0.9118800E+02  0.7818608E-02  0.1180000E+00
       11   -1    0    0    0    0  0.00000000000E+00  0.00000000000E+00  0.39999999673E+01  0.40000000000E+01  0.51109989000E-03 0.  1.
     -623   -1    0    0    0    0  0.00000000000E+00  0.00000000000E+00  0.12525980253E-10  0.17130000000E+03  0.17130000000E+03 0.  1.
       11    1    1    2    0    0  0.19220275765E-02  0.29270161258E-02  0.88773374359E-01  0.88843878977E-01  0.51109989000E-03 0.  1.
     -623    1    1    2    0    0 -0.61525202933E-03 -0.15632383061E-03  0.82027880830E-04  0.17130000000E+03  0.17130000000E+03 0.  1.
      622    1    1    2    0    0 -0.13067755465E-02 -0.27706922950E-02  0.39111445696E+01  0.39111561243E+01  0.90000000000E-02 0.  1.
</event>
<event>
 5   0  0.6135700E+09  0.9118800E+02  0.7818608E-02  0.1180000E+00
       11   -1    0    0    0    0  0.00000000000E+00  0.00000000000E+00  0.39999999673E+01  0.40000000000E+01  0.51109989000E-03 0.  1.
     -623   -1    0    0    0    0  0.00000000000E+00  0.00000000000E+00  0.12525980253E-10  0.17130000000E+03  0.17130000000E+03 0. -1.
       11    1    1    2    0    0  0.18544903754E-01  0.14217200429E-01  0.95153489598E+00  0.95182191702E+00  0.51109989000E-03 0.  1.
     -623    1    1    2    0    0  0.31184600941E-02  0.19394421902E-02  0.42011699276E-03  0.17130000004E+03  0.17130000000E+03 0. -1.
      622    1    1    2    0    0 -0.21663363848E-01 -0.16156642619E-01  0.30480449544E+01  0.30481780431E+01  0.90000000000E-02 0.  1.
</event>
<event>
 5   0  0.6135700E+09  0.9118800E+02  0.7818608E-02  0.1180000E+00
       11   -1    0    0    0    0  0.00000000000E+00  0.00000000000E+00  0.39999999673E+01  0.40000000000E+01  0.51109989000E-03 0. -1.
     -623   -1    0    0    0    0  0.00000000000E+00  0.00000000000E+00  0.12525980253E-10  0.17130000000E+03  0.17130000000E+03 0. -1.
       11    1    1    2    0    0 -0.42041228424E-02 -0.14406936829E-02  0.40849564038E+00  0.40852013375E+00  0.51109989000E-03 0. -1.
     -623    1    1    2    0    0  0.56474637869E-02  0.96873769804E-02  0.45862461269E-04  0.17130000037E+03  0.17130000000E+03 0. -1.
      622    1    1    2    0    0 -0.14433409535E-02 -0.82466833128E-02  0.35914584708E+01  0.35914795055E+01  0.90000000000E-02 0. -1.
</event>
<event>
 5   0  0.6135700E+09  0.9118800E+02  0.7818608E-02  0.1180000E+00
       11   -1    0    0    0    0  0.00000000000E+00  0.00000000000E+00  0.39999999673E+01  0.40000000000E+01  0.51109989000E-03 0. -1.
     -623   -1    0    0    0    0  0.00000000000E+00  0.00000000000E+00  0.12525980253E-10  0.17130000000E+03  0.17130000000E+03 0.  1.
       11    1    1    2    0    0  0.11002705302E-03  0.82954765226E-04  0.98478234270E-01  0.98479656952E-01  0.51109989000E-03 0. -1.
     -623    1    1    2    0    0  0.77705170935E-04 -0.16238441792E-04  0.11775730177E-04  0.17130000000E+03  0.17130000000E+03 0.  1.
      622    1    1    2    0    0 -0.18773222395E-03 -0.66716323434E-04  0.39015099574E+01  0.39015203430E+01  0.90000000000E-02 0. -1.
</event>
<event>
 5   0  0.6135700E+09  0.9118800E+02  0.7818608E-02  0.1180000E+00
       11   -1    0    0    0    0  0.00000000000E+00  0.00000000000E+00  0.39999999673E+01  0.40000000000E+01  0.51109989000E-03 0.  1.
     -623   -1    0    0    0    0  0.00000000000E+00  0.00000000000E+00  0.12525980253E-10  0.17130000000E+03  0.17130000000E+03 0.  1.
       11    1    1    2    0    0 -0.12072693359E-02 -0.23018186618E-02  0.76572758957E+00  0.76573217153E+00  0.51109989000E-03 0.  1.
     -623    1    1    2    0    0  0.18908441995E-03 -0.59599304649E-04  0.18093952072E-04  0.17130000000E+03  0.17130000000E+03 0.  1.
      622    1    1    2    0    0  0.10181849160E-02  0.23614179664E-02  0.32342542838E+01  0.32342678284E+01  0.90000000000E-02 0.  1.
</event>
<event>
 5   0  0.6135700E+09  0.9118800E+02  0.7818608E-02  0.1180000E+00
       11   -1    0    0    0    0  0.00000000000E+00  0.00000000000E+00  0.39999999673E+01  0.40000000000E+01  0.51109989000E-03 0. -1.
     -623   -1    0    0    0    0  0.00000000000E+00  0.00000000000E+00  0.12525980253E-10  0.17130000000E+03  0.17130000000E+03 0.  1.
       11    1    1    2    0    0 -0.67808376487E-04 -0.81468141542E-03  0.39213905149E+00  0.39214023669E+00  0.51109989000E-03 0. -1.
     -623    1    1    2    0    0  0.18057571289E-04  0.43051967890E-05  0.12469422873E-04  0.17130000000E+03  0.17130000000E+03 0.  1.
      622    1    1    2    0    0  0.49750805199E-04  0.81037621863E-03  0.36078484465E+01  0.36078597633E+01  0.90000000000E-02 0. -1.
</event>
<event>
 5   0  0.6135700E+09  0.9118800E+02  0.7818608E-02  0.1180000E+00
       11   -1    0    0    0    0  0.00000000000E+00  0.00000000000E+00  0.39999999673E+01  0.40000000000E+01  0.51109989000E-03 0. -1.
     -623   -1    0    0    0    0  0.00000000000E+00  0.00000000000E+00  0.12525980253E-10  0.17130000000E+03  0.17130000000E+03 0. -1.
       11    1    1    2    0    0 -0.28740981174E-02 -0.20118301697E-02  0.44485938907E+00  0.44487351592E+00  0.51109989000E-03 0. -1.
     -623    1    1    2    0    0 -0.52142470060E-03  0.24075770902E-02  0.27147514251E-04  0.17130000002E+03  0.17130000000E+03 0. -1.
      622    1    1    2    0    0  0.33955228180E-02 -0.39574692052E-03  0.35551134308E+01  0.35551264664E+01  0.90000000000E-02 0. -1.
</event>
<event>
 5   0  0.6135700E+09  0.9118800E+02  0.7818608E-02  0.1180000E+00
       11   -1    0    0    0    0  0.00000000000E+00  0.00000000000E+00  0.39999999673E+01  0.40000000000E+01  0.51109989000E-03 0.  1.
     -623   -1    0    0    0    0  0.00000000000E+00  0.00000000000E+00  0.12525980253E-10  0.17130000000E+03  0.17130000000E+03 0.  1.
       11    1    1    2    0    0  0.13598922753E-02  0.90039726110E-02  0.49505370756E+00  0.49513771359E+00  0.51109989000E-03 0.  1.
     -623    1    1    2    0    0 -0.13236009026E-02 -0.31259383528E-02  0.10049171023E-03  0.17130000003E+03  0.17130000000E+03 0.  1.
      622    1    1    2    0    0 -0.36291373926E-04 -0.58780342610E-02  0.35048457645E+01  0.35048622492E+01  0.90000000000E-02 0.  0.
</event>
<event>
 5   0  0.6135700E+09  0.9118800E+02  0.7818608E-02  0.1180000E+00
       11   -1    0    0    0    0  0.00000000000E+00  0.00000000000E+00  0.39999999673E+01  0.40000000000E+01  0.51109989000E-03 0.  1.
     -623   -1    0    0    0    0  0.00000000000E+00  0.00000000000E+00  0.12525980253E-10  0.17130000000E+03  0.17130000000E+03 0.  1.
       11    1    1    2    0    0  0.29896243418E-03 -0.94513909348E-03  0.66621387173E-01  0.66630722031E-01  0.51109989000E-03 0.  1.
     -623    1    1    2    0    0  0.14728168532E-03 -0.64419177072E-04  0.19753696999E-04  0.17130000000E+03  0.17130000000E+03 0.  1.
      622    1    1    2    0    0 -0.44624412007E-03  0.10095582708E-02  0.39333588421E+01  0.39333692935E+01  0.90000000000E-02 0.  1.
</event>
<event>
 5   0  0.6135700E+09  0.9118800E+02  0.7818608E-02  0.1180000E+00
       11   -1    0    0    0    0  0.00000000000E+00  0.00000000000E+00  0.39999999673E+01  0.40000000000E+01  0.51109989000E-03 0.  1.
     -623   -1    0    0    0    0  0.00000000000E+00  0.00000000000E+00  0.12525980253E-10  0.17130000000E+03  0.17130000000E+03 0.  1.
       11    1    1    2    0    0  0.77975337233E-02  0.82630683128E-02  0.55378780386E+00  0.55390457008E+00  0.51109989000E-03 0.  1.
     -623    1    1    2    0    0 -0.14442056556E-02 -0.86020827822E-03  0.14230237711E-03  0.17130000001E+03  0.17130000000E+03 0.  1.
      622    1    1    2    0    0 -0.63533280663E-02 -0.74028600338E-02  0.34460698649E+01  0.34460954254E+01  0.90000000000E-02 0.  0.
</event>
<event>
 5   0  0.6135700E+09  0.9118800E+02  0.7818608E-02  0.1180000E+00
       11   -1    0    0    0    0  0.00000000000E+00  0.00000000000E+00  0.39999999673E+01  0.40000000000E+01  0.51109989000E-03 0. -1.
     -623   -1    0    0    0    0  0.00000000000E+00  0.00000000000E+00  0.12525980253E-10  0.17130000000E+03  0.17130000000E+03 0.  1.
       11    1    1    2    0    0  0.19081336600E-03 -0.10236510010E-02  0.10331990303E+01  0.10331996814E+01  0.51109989000E-03 0. -1.
     -623    1    1    2    0    0  0.31962502638E-04  0.12608925465E-03  0.14413778301E-04  0.17130000000E+03  0.17130000000E+03 0.  1.
      622    1    1    2    0    0 -0.22277586863E-03  0.89756174632E-03  0.29667865233E+01  0.29668003185E+01  0.90000000000E-02 0. -1.
</event>
<event>
 5   0  0.6135700E+09  0.9118800E+02  0.7818608E-02  0.1180000E+00
       11   -1    0    0    0    0  0.00000000000E+00  0.00000000000E+00  0.39999999673E+01  0.40000000000E+01  0.51109989000E-03 0. -1.
     -623   -1    0    0    0    0  0.00000000000E+00  0.00000000000E+00  0.12525980253E-10  0.17130000000E+03  0.17130000000E+03 0. -1.
       11    1    1    2    0    0  0.26864986066E-02 -0.17277235913E-02  0.52780997112E+00  0.52781988323E+00  0.51109989000E-03 0. -1.
     -623    1    1    2    0    0 -0.16513534343E-02  0.16192764162E-02  0.21715245473E-04  0.17130000002E+03  0.17130000000E+03 0. -1.
      622    1    1    2    0    0 -0.10351451723E-02  0.10844717502E-03  0.34721682810E+01  0.34721801012E+01  0.90000000000E-02 0.  0.
</event>
<event>
 5   0  0.6135700E+09  0.9118800E+02  0.7818608E-02  0.1180000E+00
       11   -1    0    0    0    0  0.00000000000E+00  0.00000000000E+00  0.39999999673E+01  0.40000000000E+01  0.51109989000E-03 0. -1.
     -623   -1    0    0    0    0  0.00000000000E+00  0.00000000000E+00  0.12525980253E-10  0.17130000000E+03  0.17130000000E+03 0.  1.
       11    1    1    2    0    0  0.87043495693E-03 -0.55084819320E-05  0.61148249342E+00  0.61148332657E+00  0.51109989000E-03 0. -1.
     -623    1    1    2    0    0 -0.49473530990E-03  0.10100172319E-03  0.12775578523E-04  0.17130000000E+03  0.17130000000E+03 0.  1.
      622    1    1    2    0    0 -0.37569964611E-03 -0.95493241446E-04  0.33885047058E+01  0.33885166802E+01  0.90000000000E-02 0.  0.
</event>
<event>
 5   0  0.6135700E+09  0.9118800E+02  0.7818608E-02  0.1180000E+00
       11   -1    0    0    0    0  0.00000000000E+00  0.00000000000E+00  0.39999999673E+01  0.40000000000E+01  0.51109989000E-03 0.  1.
     -623   -1    0    0    0    0  0.00000000000E+00  0.00000000000E+00  0.12525980253E-10  0.17130000000E+03  0.17130000000E+03 0. -1.
       11    1    1    2    0    0 -0.28524223041E-02  0.25871116127E-02  0.58127075949E+00  0.58128374011E+00  0.51109989000E-03 0.  1.
     -623    1    1    2    0    0 -0.16781892843E-02 -0.14900073598E-02  0.27987376289E-04  0.17130000001E+03  0.17130000000E+03 0. -1.
      622    1    1    2    0    0  0.45306115884E-02 -0.10971042529E-02  0.34187012205E+01  0.34187162452E+01  0.90000000000E-02 0.  1.
</event>
<event>
 5   0  0.6135700E+09  0.9118800E+02  0.7818608E-02  0.1180000E+00
       11   -1    0    0    0    0  0.00000000000E+00  0.00000000000E+00  0.39999999673E+01  0.40000000000E+01  0.51109989000E-03 0.  1.
     -623   -1    0    0    0    0  0.00000000000E+00  0.00000000000E+00  0.12525980253E-10  0.17130000000E+03  0.17130000000E+03 0.  1.
       11    1    1    2    0    0 -0.10523222828E-02  0.11419635344E-02  0.75887714942E-01  0.75905322377E-01  0.51109989000E-03 0.  1.
     -623    1    1    2    0    0  0.22364978788E-02 -0.76582169927E-03  0.28108676819E-04  0.17130000002E+03  0.17130000000E+03 0.  1.
      622    1    1    2    0    0 -0.11841755896E-02 -0.37614183733E-03  0.39240841322E+01  0.39240946498E+01  0.90000000000E-02 0.  1.
</event>
<event>
 5   0  0.6135700E+09  0.9118800E+02  0.7818608E-02  0.1180000E+00
       11   -1    0    0    0    0  0.00000000000E+00  0.00000000000E+00  0.39999999673E+01  0.40000000000E+01  0.51109989000E-03 0.  1.
     -623   -1    0    0    0    0  0.00000000000E+00  0.00000000000E+00  0.12525980253E-10  0.17130000000E+03  0.17130000000E+03 0.  1.
       11    1    1    2    0    0 -0.19464873947E-02  0.32673524692E-02  0.26318470434E+00  0.26321267869E+00  0.51109989000E-03 0.  1.
     -623    1    1    2    0    0  0.60416704972E-04 -0.18408533383E-03  0.40528034906E-04  0.17130000000E+03  0.17130000000E+03 0.  1.
      622    1    1    2    0    0  0.18860706897E-02 -0.30832671354E-02  0.37367747350E+01  0.37367873212E+01  0.90000000000E-02 0.  0.
</event>
<event>
 5   0  0.6135700E+09  0.9118800E+02  0.7818608E-02  0.1180000E+00
       11   -1    0    0    0    0  0.00000000000E+00  0.00000000000E+00  0.39999999673E+01  0.40000000000E+01  0.51109989000E-03 0.  1.
     -623   -1    0    0    0    0  0.00000000000E+00  0.00000000000E+00  0.12525980253E-10  0.17130000000E+03  0.17130000000E+03 0.  1.
       11    1    1    2    0    0  0.78758949242E-03 -0.76494061796E-03  0.41588469182E-01  0.41606098356E-01  0.51109989000E-03 0.  1.
     -623    1    1    2    0    0 -0.41320742834E-04 -0.83998047579E-04  0.27989378931E-04  0.17130000000E+03  0.17130000000E+03 0.  1.
      622    1    1    2    0    0 -0.74626874958E-03  0.84893866554E-03  0.39583835088E+01  0.39583939016E+01  0.90000000000E-02 0.  1.
</event>
<event>
 5   0  0.6135700E+09  0.9118800E+02  0.7818608E-02  0.1180000E+00
       11   -1    0    0    0    0  0.00000000000E+00  0.00000000000E+00  0.39999999673E+01  0.40000000000E+01  0.51109989000E-03 0. -1.
     -623   -1    0    0    0    0  0.00000000000E+00  0.00000000000E+00  0.12525980253E-10  0.17130000000E+03  0.17130000000E+03 0.  1.
       11    1    1    2    0    0  0.14038636201E-03  0.54543466382E-03  0.85658050996E-02  0.85995027417E-02  0.51109989000E-03 0.  1.
     -623    1    1    2    0    0 -0.21288578620E-02 -0.13268567004E-02  0.44402012954E-04  0.17130000002E+03  0.17130000000E+03 0.  1.
      622    1    1    2    0    0  0.19884715011E-02  0.78142203724E-03  0.39913897623E+01  0.39914004810E+01  0.90000000000E-02 0. -1.
</event>
<event>
 5   0  0.6135700E+09  0.9118800E+02  0.7818608E-02  0.1180000E+00
       11   -1    0    0    0    0  0.00000000000E+00  0.00000000000E+00  0.39999999673E+01  0.40000000000E+01  0.51109989000E-03 0.  1.
     -623   -1    0    0    0    0  0.00000000000E+00  0.00000000000E+00  0.12525980253E-10  0.17130000000E+03  0.17130000000E+03 0.  1.
       11    1    1    2    0    0  0.15258407809E-03 -0.13535188769E-02  0.20212579976E+00  0.20213103534E+00  0.51109989000E-03 0.  1.
     -623    1    1    2    0    0 -0.16758528155E-02  0.19479469051E-02  0.16238100440E-04  0.17130000002E+03  0.17130000000E+03 0.  1.
      622    1    1    2    0    0  0.15232687374E-02 -0.59442802824E-03  0.37978579295E+01  0.37978689454E+01  0.90000000000E-02 0.  1.
</event>
<event>
 5   0  0.6135700E+09  0.9118800E+02  0.7818608E-02  0.1180000E+00
       11   -1    0    0    0    0  0.00000000000E+00  0.00000000000E+00  0.39999999673E+01  0.40000000000E+01  0.51109989000E-03 0.  1.
     -623   -1    0    0    0    0  0.00000000000E+00  0.00000000000E+00  0.12525980253E-10  0.17130000000E+03  0.17130000000E+03 0.  1.
       11    1    1    2    0    0  0.27965605336E-03  0.28882350107E-03  0.43233638316E+00  0.43233687219E+00  0.51109989000E-03 0.  1.
     -623    1    1    2    0    0  0.39610328583E-04  0.92284359731E-04  0.11843044515E-04  0.17130000000E+03  0.17130000000E+03 0.  1.
      622    1    1    2    0    0 -0.31926638194E-03 -0.38110786080E-03  0.35676517412E+01  0.35676631278E+01  0.90000000000E-02 0.  1.
</event>
<event>
 5   0  0.6135700E+09  0.9118800E+02  0.7818608E-02  0.1180000E+00
       11   -1    0    0    0    0  0.00000000000E+00  0.00000000000E+00  0.39999999673E+01  0.40000000000E+01  0.51109989000E-03 0. -1.
     -623   -1    0    0    0    0  0.00000000000E+00  0.00000000000E+00  0.12525980253E-10  0.17130000000E+03  0.17130000000E+03 0. -1.
       11    1    1    2    0    0  0.12536298051E-03 -0.53355102484E-03  0.33212812332E-01  0.33221266031E-01  0.51109989000E-03 0. -1.
     -623    1    1    2    0    0  0.63354288517E-04 -0.29492642008E-04  0.18675330837E-04  0.17130000000E+03  0.17130000000E+03 0. -1.
      622    1    1    2    0    0 -0.18871726903E-03  0.56304366685E-03  0.39667684797E+01  0.39667787340E+01  0.90000000000E-02 0. -1.
</event>
<event>
 5   0  0.6135700E+09  0.9118800E+02  0.7818608E-02  0.1180000E+00
       11   -1    0    0    0    0  0.00000000000E+00  0.00000000000E+00  0.39999999673E+01  0.40000000000E+01  0.51109989000E-03 0. -1.
     -623   -1    0    0    0    0  0.00000000000E+00  0.00000000000E+00  0.12525980253E-10  0.17130000000E+03  0.17130000000E+03 0.  1.
       11    1    1    2    0    0  0.27372312327E-03  0.71576400901E-03  0.14719625245E+00  0.14719913452E+00  0.51109989000E-03 0. -1.
     -623    1    1    2    0    0  0.11307307014E-03 -0.15775739686E-03  0.13421203680E-04  0.17130000000E+03  0.17130000000E+03 0.  1.
      622    1    1    2    0    0 -0.38679619376E-03 -0.55800661166E-03  0.38527903060E+01  0.38528008777E+01  0.90000000000E-02 0. -1.
</event>
<event>
 5   0  0.6135700E+09  0.9118800E+02  0.7818608E-02  0.1180000E+00
       11   -1    0    0    0    0  0.00000000000E+00  0.00000000000E+00  0.39999999673E+01  0.40000000000E+01  0.51109989000E-03 0. -1.
     -623   -1    0    0    0    0  0.00000000000E+00  0.00000000000E+00  0.12525980253E-10  0.17130000000E+03  0.17130000000E+03 0. -1.
       11    1    1    2    0    0 -0.62893297174E-03 -0.30869034420E-03  0.26089096473E-01  0.26103505928E-01  0.51109989000E-03 0. -1.
     -623    1    1    2    0    0  0.92956695977E-03  0.91886879119E-03  0.24631542492E-04  0.17130000000E+03  0.17130000000E+03 0. -1.
      622    1    1    2    0    0 -0.30063398803E-03 -0.61017844699E-03  0.39738862393E+01  0.39738964891E+01  0.90000000000E-02 0. -1.
</event>
<event>
 5   0  0.6135700E+09  0.9118800E+02  0.7818608E-02  0.1180000E+00
       11   -1    0    0    0    0  0.00000000000E+00  0.00000000000E+00  0.39999999673E+01  0.40000000000E+01  0.51109989000E-03 0. -1.
     -623   -1    0    0    0    0  0.00000000000E+00  0.00000000000E+00  0.12525980253E-10  0.17130000000E+03  0.17130000000E+03 0. -1.
       11    1    1    2    0    0  0.13675110478E-02  0.29861465814E-02  0.22254610952E-01  0.22501468610E-01  0.51109989000E-03 0. -1.
     -623    1    1    2    0    0  0.80315174306E-03 -0.49925691796E-02  0.25818051222E-03  0.17130000007E+03  0.17130000000E+03 0. -1.
      622    1    1    2    0    0 -0.21706627907E-02  0.20064225977E-02  0.39774871754E+01  0.39774984561E+01  0.90000000000E-02 0. -1.
</event>
<event>
 5   0  0.6135700E+09  0.9118800E+02  0.7818608E-02  0.1180000E+00
       11   -1    0    0    0    0  0.00000000000E+00  0.00000000000E+00  0.39999999673E+01  0.40000000000E+01  0.51109989000E-03 0.  1.
     -623   -1    0    0    0    0  0.00000000000E+00  0.00000000000E+00  0.12525980253E-10  0.17130000000E+03  0.17130000000E+03 0. -1.
       11    1    1    2    0    0  0.22955170349E-02  0.24808856366E-03  0.20178407679E+00  0.20179793313E+00  0.51109989000E-03 0.  1.
     -623    1    1    2    0    0 -0.16922919409E-03 -0.33490138152E-03  0.25083224361E-04  0.17130000000E+03  0.17130000000E+03 0. -1.
      622    1    1    2    0    0 -0.21262878410E-02  0.86812817529E-04  0.37981908035E+01  0.37982020626E+01  0.90000000000E-02 0.  1.
</event>
<event>
 5   0  0.6135700E+09  0.9118800E+02  0.7818608E-02  0.1180000E+00
       11   -1    0    0    0    0  0.00000000000E+00  0.00000000000E+00  0.39999999673E+01  0.40000000000E+01  0.51109989000E-03 0. -1.
     -623   -1    0    0    0    0  0.00000000000E+00  0.00000000000E+00  0.12525980253E-10  0.17130000000E+03  0.17130000000E+03 0.  1.
       11    1    1    2    0    0 -0.63304713444E-02 -0.20005232509E-02  0.93911407067E+00  0.93913767677E+00  0.51109989000E-03 0. -1.
     -623    1    1    2    0    0 -0.97302806876E-03 -0.23067988810E-02  0.48567519002E-04  0.17130000002E+03  0.17130000000E+03 0.  1.
      622    1    1    2    0    0  0.73034994130E-02  0.43073221314E-02  0.30608373282E+01  0.30608623040E+01  0.90000000000E-02 0. -1.
</event>
<event>
 5   0  0.6135700E+09  0.9118800E+02  0.7818608E-02  0.1180000E+00
       11   -1    0    0    0    0  0.00000000000E+00  0.00000000000E+00  0.39999999673E+01  0.40000000000E+01  0.51109989000E-03 0.  1.
     -623   -1    0    0    0    0  0.00000000000E+00  0.00000000000E+00  0.12525980253E-10  0.17130000000E+03  0.17130000000E+03 0. -1.
       11    1    1    2    0    0  0.22648042669E-02 -0.31452452575E-04  0.45362330494E+00  0.45362924766E+00  0.51109989000E-03 0.  1.
     -623    1    1    2    0    0 -0.12535368149E-03 -0.10210027092E-03  0.17978164009E-04  0.17130000000E+03  0.17130000000E+03 0. -1.
      622    1    1    2    0    0 -0.21394505854E-02  0.13355272350E-03  0.35463586843E+01  0.35463707523E+01  0.90000000000E-02 0.  0.
</event>
<event>
 5   0  0.6135700E+09  0.9118800E+02  0.7818608E-02  0.1180000E+00
       11   -1    0    0    0    0  0.00000000000E+00  0.00000000000E+00  0.39999999673E+01  0.40000000000E+01  0.51109989000E-03 0.  1.
     -623   -1    0    0    0    0  0.00000000000E+00  0.00000000000E+00  0.12525980253E-10  0.17130000000E+03  0.17130000000E+03 0.  1.
       11    1    1    2    0    0 -0.24860500375E-02 -0.20541040418E-02  0.11447605904E-01  0.11904146011E-01  0.51109989000E-03 0.  1.
     -623    1    1    2    0    0  0.93983248648E-03  0.84603884142E-03  0.46715071990E-03  0.17130000001E+03  0.17130000000E+03 0.  1.
      622    1    1    2    0    0  0.15462175509E-02  0.12080652003E-02  0.39880852112E+01  0.39880958492E+01  0.90000000000E-02 0.  1.
</event>
<event>
 5   0  0.6135700E+09  0.9118800E+02  0.7818608E-02  0.1180000E+00
       11   -1    0    0    0    0  0.00000000000E+00  0.00000000000E+00  0.39999999673E+01  0.40000000000E+01  0.51109989000E-03 0.  1.
     -623   -1    0    0    0    0  0.00000000000E+00  0.00000000000E+00  0.12525980253E-10  0.17130000000E+03  0.17130000000E+03 0. -1.
       11    1    1    2    0    0 -0.19551063542E-02  0.78569958858E-04  0.12848639122E+00  0.12850230568E+00  0.51109989000E-03 0.  1.
     -623    1    1    2    0    0  0.17303831705E-02 -0.66295191543E-04  0.26358201262E-04  0.17130000001E+03  0.17130000000E+03 0. -1.
      622    1    1    2    0    0  0.22472317973E-03 -0.12274767166E-04  0.38714872269E+01  0.38714976945E+01  0.90000000000E-02 0.  1.
</event>
<event>
 5   0  0.6135700E+09  0.9118800E+02  0.7818608E-02  0.1180000E+00
       11   -1    0    0    0    0  0.00000000000E+00  0.00000000000E+00  0.39999999673E+01  0.40000000000E+01  0.51109989000E-03 0. -1.
     -623   -1    0    0    0    0  0.00000000000E+00  0.00000000000E+00  0.12525980253E-10  0.17130000000E+03  0.17130000000E+03 0.  1.
       11    1    1    2    0    0  0.51420646517E-02  0.49176319997E-02  0.31953859038E+00  0.31961820333E+00  0.51109989000E-03 0. -1.
     -623    1    1    2    0    0 -0.24366975786E-04 -0.16675775873E-03  0.97209286599E-04  0.17130000000E+03  0.17130000000E+03 0.  1.
      622    1    1    2    0    0 -0.51176976759E-02 -0.47508742410E-02  0.36803641677E+01  0.36803817966E+01  0.90000000000E-02 0. -1.
</event>
<event>
 5   0  0.6135700E+09  0.9118800E+02  0.7818608E-02  0.1180000E+00
       11   -1    0    0    0    0  0.00000000000E+00  0.00000000000E+00  0.39999999673E+01  0.40000000000E+01  0.51109989000E-03 0. -1.
     -623   -1    0    0    0    0  0.00000000000E+00  0.00000000000E+00  0.12525980253E-10  0.17130000000E+03  0.17130000000E+03 0.  1.
       11    1    1    2    0    0 -0.43853774696E-04 -0.34765389802E-03  0.43246751283E-02  0.43688470389E-02  0.51109989000E-03 0.  1.
     -623    1    1    2    0    0 -0.60065322243E-04 -0.78479310290E-03  0.54439002520E-04  0.17130000000E+03  0.17130000000E+03 0.  1.
      622    1    1    2    0    0  0.10391909699E-03  0.11324470016E-02  0.39956208566E+01  0.39956311545E+01  0.90000000000E-02 0. -1.
</event>
<event>
 5   0  0.6135700E+09  0.9118800E+02  0.7818608E-02  0.1180000E+00
       11   -1    0    0    0    0  0.00000000000E+00  0.00000000000E+00  0.39999999673E+01  0.40000000000E+01  0.51109989000E-03 0. -1.
     -623   -1    0    0    0    0  0.00000000000E+00  0.00000000000E+00  0.12525980253E-10  0.17130000000E+03  0.17130000000E+03 0.  1.
       11    1    1    2    0    0 -0.46602326773E-03  0.77463468898E-02  0.20245997007E+00  0.20260928846E+00  0.51109989000E-03 0. -1.
     -623    1    1    2    0    0 -0.70285804462E-02 -0.20271928259E-01  0.18934836620E-03  0.17130000134E+03  0.17130000000E+03 0.  1.
      622    1    1    2    0    0  0.74946037152E-02  0.12525581373E-01  0.37973506497E+01  0.37973893685E+01  0.90000000000E-02 0. -1.
</event>
<event>
 5   0  0.6135700E+09  0.9118800E+02  0.7818608E-02  0.1180000E+00
       11   -1    0    0    0    0  0.00000000000E+00  0.00000000000E+00  0.39999999673E+01  0.40000000000E+01  0.51109989000E-03 0. -1.
     -623   -1    0    0    0    0  0.00000000000E+00  0.00000000000E+00  0.12525980253E-10  0.17130000000E+03  0.17130000000E+03 0. -1.
       11    1    1    2    0    0 -0.15069083616E-01 -0.11323796846E-01  0.72477864775E-01  0.74890638678E-01  0.51109989000E-03 0. -1.
     -623    1    1    2    0    0  0.12892627124E-01 -0.46680254841E-03  0.24418750198E-02  0.17130000050E+03  0.17130000000E+03 0. -1.
      622    1    1    2    0    0  0.21764564912E-02  0.11790599395E-01  0.39250802277E+01  0.39251088582E+01  0.90000000000E-02 0. -1.
</event>
<event>
 5   0  0.6135700E+09  0.9118800E+02  0.7818608E-02  0.1180000E+00
       11   -1    0    0    0    0  0.00000000000E+00  0.00000000000E+00  0.39999999673E+01  0.40000000000E+01  0.51109989000E-03 0.  1.
     -623   -1    0    0    0    0  0.00000000000E+00  0.00000000000E+00  0.12525980253E-10  0.17130000000E+03  0.17130000000E+03 0. -1.
       11    1    1    2    0    0  0.21924602785E-02  0.11319567335E-02  0.28960339341E+00  0.28961435549E+00  0.51109989000E-03 0.  1.
     -623    1    1    2    0    0  0.87582416060E-03 -0.90135362410E-03  0.23125196139E-04  0.17130000000E+03  0.17130000000E+03 0. -1.
      622    1    1    2    0    0 -0.30682844422E-02 -0.23060310625E-03  0.37103734628E+01  0.37103856539E+01  0.90000000000E-02 0.  1.
</event>
<event>
 5   0  0.6135700E+09  0.9118800E+02  0.7818608E-02  0.1180000E+00
       11   -1    0    0    0    0  0.00000000000E+00  0.00000000000E+00  0.39999999673E+01  0.40000000000E+01  0.51109989000E-03 0. -1.
     -623   -1    0    0    0    0  0.00000000000E+00  0.00000000000E+00  0.12525980253E-10  0.17130000000E+03  0.17130000000E+03 0. -1.
       11    1    1    2    0    0 -0.12670620725E-03  0.67216403730E-03  0.71241741345E-01  0.71246858100E-01  0.51109989000E-03 0. -1.
     -623    1    1    2    0    0 -0.95676985179E-04  0.60917323379E-04  0.15467468930E-04  0.17130000000E+03  0.17130000000E+03 0. -1.
      622    1    1    2    0    0  0.22238319243E-03 -0.73308136068E-03  0.39287427585E+01  0.39287531419E+01  0.90000000000E-02 0. -1.
</event>
<event>
 5   0  0.6135700E+09  0.9118800E+02  0.7818608E-02  0.1180000E+00
       11   -1    0    0    0    0  0.00000000000E+00  0.00000000000E+00  0.39999999673E+01  0.40000000000E+01  0.51109989000E-03 0.  1.
     -623   -1    0    0    0    0  0.00000000000E+00  0.00000000000E+00  0.12525980253E-10  0.17130000000E+03  0.17130000000E+03 0.  1.
       11    1    1    2    0    0 -0.67929535428E-03  0.46679072119E-03  0.43634195204E+00  0.43634302982E+00  0.51109989000E-03 0.  1.
     -623    1    1    2    0    0 -0.19114884131E-02 -0.67879306779E-03  0.13369955544E-04  0.17130000001E+03  0.17130000000E+03 0.  1.
      622    1    1    2    0    0  0.25907837568E-02  0.21200234283E-03  0.35636446231E+01  0.35636569359E+01  0.90000000000E-02 0.  0.
</event>
<event>
 5   0  0.6135700E+09  0.9118800E+02  0.7818608E-02  0.1180000E+00
       11   -1    0    0    0    0  0.00000000000E+00  0.00000000000E+00  0.39999999673E+01  0.40000000000E+01  0.51109989000E-03 0.  1.
     -623   -1    0    0    0    0  0.00000000000E+00  0.00000000000E+00  0.12525980253E-10  0.17130000000E+03  0.17130000000E+03 0. -1.
       11    1    1    2    0    0 -0.93705071280E-03 -0.11354007116E-02  0.20461149679E+00  0.20461743093E+00  0.51109989000E-03 0.  1.
     -623    1    1    2    0    0 -0.18241018897E-03  0.74689903463E-03  0.16759081104E-04  0.17130000000E+03  0.17130000000E+03 0. -1.
      622    1    1    2    0    0  0.11194609032E-02  0.38850167099E-03  0.37953717437E+01  0.37953825996E+01  0.90000000000E-02 0.  1.
</event>
<event>
 5   0  0.6135700E+09  0.9118800E+02  0.7818608E-02  0.1180000E+00
       11   -1    0    0    0    0  0.00000000000E+00  0.00000000000E+00  0.39999999673E+01  0.40000000000E+01  0.51109989000E-03 0. -1.
     -623   -1    0    0    0    0  0.00000000000E+00  0.00000000000E+00  0.12525980253E-10  0.17130000000E+03  0.17130000000E+03 0. -1.
       11    1    1    2    0    0  0.95512309421E-03  0.20785018369E-02  0.29587682235E+00  0.29588610588E+00  0.51109989000E-03 0. -1.
     -623    1    1    2    0    0  0.13714365808E-02 -0.43649468542E-03  0.21285355856E-04  0.17130000001E+03  0.17130000000E+03 0. -1.
      622    1    1    2    0    0 -0.23265596739E-02 -0.16420071519E-02  0.37041018564E+01  0.37041138848E+01  0.90000000000E-02 0. -1.
</event>
<event>
 5   0  0.6135700E+09  0.9118800E+02  0.7818608E-02  0.1180000E+00
       11   -1    0    0    0    0  0.00000000000E+00  0.00000000000E+00  0.39999999673E+01  0.40000000000E+01  0.51109989000E-03 0. -1.
     -623   -1    0    0    0    0  0.00000000000E+00  0.00000000000E+00  0.12525980253E-10  0.17130000000E+03  0.17130000000E+03 0. -1.
       11    1    1    2    0    0 -0.66618819814E-03 -0.12270857039E-02  0.39154553043E-01  0.39182774181E-01  0.51109989000E-03 0. -1.
     -623    1    1    2    0    0 -0.45769304299E-03  0.60528427398E-03  0.38623616642E-04  0.17130000000E+03  0.17130000000E+03 0. -1.
      622    1    1    2    0    0  0.11238812411E-02  0.62180142992E-03  0.39608067907E+01  0.39608172241E+01  0.90000000000E-02 0. -1.
</event>
<event>
 5   0  0.6135700E+09  0.9118800E+02  0.7818608E-02  0.1180000E+00
       11   -1    0    0    0    0  0.00000000000E+00  0.00000000000E+00  0.39999999673E+01  0.40000000000E+01  0.51109989000E-03 0.  1.
     -623   -1    0    0    0    0  0.00000000000E+00  0.00000000000E+00  0.12525980253E-10  0.17130000000E+03  0.17130000000E+03 0. -1.
       11    1    1    2    0    0 -0.72672238774E-03  0.27778867015E-03  0.15772261125E-02  0.18314358524E-02  0.51109989000E-03 0. -1.
     -623    1    1    2    0    0  0.19142391216E-02 -0.10970257386E-02  0.26458145134E-03  0.17130000001E+03  0.17130000000E+03 0. -1.
      622    1    1    2    0    0 -0.11875167337E-02  0.81923706837E-03  0.39981581596E+01  0.39981685496E+01  0.90000000000E-02 0.  1.
</event>
<event>
 5   0  0.6135700E+09  0.9118800E+02  0.7818608E-02  0.1180000E+00
       11   -1    0    0    0    0  0.00000000000E+00  0.00000000000E+00  0.39999999673E+01  0.40000000000E+01  0.51109989000E-03 0.  1.
     -623   -1    0    0    0    0  0.00000000000E+00  0.00000000000E+00  0.12525980253E-10  0.17130000000E+03  0.17130000000E+03 0.  1.
       11    1    1    2    0    0  0.18417179079E-02  0.43801576125E-02  0.30395389413E+00  0.30399146153E+00  0.51109989000E-03 0.  1.
     -623    1    1    2    0    0 -0.47012421413E-03 -0.98650350528E-04  0.51227612615E-04  0.17130000000E+03  0.17130000000E+03 0.  1.
      622    1    1    2    0    0 -0.13715936938E-02 -0.42815072619E-02  0.36959948456E+01  0.36960085378E+01  0.90000000000E-02 0.  0.
</event>
<event>
 5   0  0.6135700E+09  0.9118800E+02  0.7818608E-02  0.1180000E+00
       11   -1    0    0    0    0  0.00000000000E+00  0.00000000000E+00  0.39999999673E+01  0.40000000000E+01  0.51109989000E-03 0. -1.
     -623   -1    0    0    0    0  0.00000000000E+00  0.00000000000E+00  0.12525980253E-10  0.17130000000E+03  0.17130000000E+03 0.  1.
       11    1    1    2    0    0 -0.40996061652E-02  0.87050778030E-02  0.40010884134E+00  0.40022485092E+00  0.51109989000E-03 0. -1.
     -623    1    1    2    0    0  0.82239323137E-02 -0.18610082584E-02  0.13630406759E-03  0.17130000021E+03  0.17130000000E+03 0.  1.
      622    1    1    2    0    0 -0.41243261485E-02 -0.68440695445E-02  0.35997548219E+01  0.35997749415E+01  0.90000000000E-02 0. -1.
</event>
<event>
 5   0  0.6135700E+09  0.9118800E+02  0.7818608E-02  0.1180000E+00
       11   -1    0    0    0    0  0.00000000000E+00  0.00000000000E+00  0.39999999673E+01  0.40000000000E+01  0.51109989000E-03 0.  1.
     -623   -1    0    0    0    0  0.00000000000E+00  0.00000000000E+00  0.12525980253E-10  0.17130000000E+03  0.17130000000E+03 0.  1.
       11    1    1    2    0    0 -0.25788558876E-03  0.13269355659E-02  0.85512882619E-02  0.86725438603E-02  0.51109989000E-03 0.  1.
     -623    1    1    2    0    0 -0.52432442321E-03  0.63073376122E-03  0.13192873437E-03  0.17130000000E+03  0.17130000000E+03 0.  1.
      622    1    1    2    0    0  0.78221001234E-03 -0.19576693276E-02  0.39913167531E+01  0.39913274569E+01  0.90000000000E-02 0.  1.
</event>
<event>
 5   0  0.6135700E+09  0.9118800E+02  0.7818608E-02  0.1180000E+00
       11   -1    0    0    0    0  0.00000000000E+00  0.00000000000E+00  0.39999999673E+01  0.40000000000E+01  0.51109989000E-03 0. -1.
     -623   -1    0    0    0    0  0.00000000000E+00  0.00000000000E+00  0.12525980253E-10  0.17130000000E+03  0.17130000000E+03 0. -1.
       11    1    1    2    0    0  0.27593502499E-03 -0.88602254455E-05  0.20747459342E-01  0.20755589871E-01  0.51109989000E-03 0. -1.
     -623    1    1    2    0    0  0.58592389526E-04  0.44050342167E-04  0.18289947302E-04  0.17130000000E+03  0.17130000000E+03 0. -1.
      622    1    1    2    0    0 -0.33452741433E-03 -0.35190116582E-04  0.39792342054E+01  0.39792443974E+01  0.90000000000E-02 0. -1.
</event>
<event>
 5   0  0.6135700E+09  0.9118800E+02  0.7818608E-02  0.1180000E+00
       11   -1    0    0    0    0  0.00000000000E+00  0.00000000000E+00  0.39999999673E+01  0.40000000000E+01  0.51109989000E-03 0.  1.
     -623   -1    0    0    0    0  0.00000000000E+00  0.00000000000E+00  0.12525980253E-10  0.17130000000E+03  0.17130000000E+03 0.  1.
       11    1    1    2    0    0  0.57955921049E-03 -0.14121002829E-02  0.11306111919E+01  0.11306123378E+01  0.51109989000E-03 0.  1.
     -623    1    1    2    0    0  0.23539077145E-03 -0.23987931691E-03  0.15819411639E-04  0.17130000000E+03  0.17130000000E+03 0.  1.
      622    1    1    2    0    0 -0.81494998161E-03  0.16519795994E-02  0.28693729504E+01  0.28693876563E+01  0.90000000000E-02 0.  1.
</event>
<event>
 5   0  0.6135700E+09  0.9118800E+02  0.7818608E-02  0.1180000E+00
       11   -1    0    0    0    0  0.00000000000E+00  0.00000000000E+00  0.39999999673E+01  0.40000000000E+01  0.51109989000E-03 0. -1.
     -623   -1    0    0    0    0  0.00000000000E+00  0.00000000000E+00  0.12525980253E-10  0.17130000000E+03  0.17130000000E+03 0.  1.
       11    1    1    2    0    0  0.93399039897E-03  0.56671317516E-03  0.92428766795E-02  0.93212388822E-02  0.51109989000E-03 0. -1.
     -623    1    1    2    0    0 -0.13328682765E-02 -0.13218236323E-02  0.88579908215E-04  0.17130000001E+03  0.17130000000E+03 0.  1.
      622    1    1    2    0    0  0.39887787867E-03  0.75511045826E-03  0.39906685141E+01  0.39906787541E+01  0.90000000000E-02 0. -1.
</event>
<event>
 5   0  0.6135700E+09  0.9118800E+02  0.7818608E-02  0.1180000E+00
       11   -1    0    0    0    0  0.00000000000E+00  0.00000000000E+00  0.39999999673E+01  0.40000000000E+01  0.51109989000E-03 0. -1.
     -623   -1    0    0    0    0  0.00000000000E+00  0.00000000000E+00  0.12525980253E-10  0.17130000000E+03  0.17130000000E+03 0. -1.
       11    1    1    2    0    0 -0.15674721180E-03  0.15254347246E-02  0.45037140197E-01  0.45066137383E-01  0.51109989000E-03 0. -1.
     -623    1    1    2    0    0 -0.68508451825E-03 -0.91409285421E-03  0.39345590646E-04  0.17130000000E+03  0.17130000000E+03 0. -1.
      622    1    1    2    0    0  0.84183173006E-03 -0.61134187039E-03  0.39549234816E+01  0.39549338588E+01  0.90000000000E-02 0. -1.
</event>
<event>
 5   0  0.6135700E+09  0.9118800E+02  0.7818608E-02  0.1180000E+00
       11   -1    0    0    0    0  0.00000000000E+00  0.00000000000E+00  0.39999999673E+01  0.40000000000E+01  0.51109989000E-03 0. -1.
     -623   -1    0    0    0    0  0.00000000000E+00  0.00000000000E+00  0.12525980253E-10  0.17130000000E+03  0.17130000000E+03 0.  1.
       11    1    1    2    0    0 -0.53700509101E-03 -0.81073769436E-03  0.58182139394E-01  0.58192510150E-01  0.51109989000E-03 0. -1.
     -623    1    1    2    0    0 -0.11592556401E-02  0.33512284130E-02  0.21832956562E-04  0.17130000004E+03  0.17130000000E+03 0.  1.
      622    1    1    2    0    0  0.16962607302E-02 -0.25404907159E-02  0.39417959917E+01  0.39418074499E+01  0.90000000000E-02 0. -1.
</event>
<event>
 5   0  0.6135700E+09  0.9118800E+02  0.7818608E-02  0.1180000E+00
       11   -1    0    0    0    0  0.00000000000E+00  0.00000000000E+00  0.39999999673E+01  0.40000000000E+01  0.51109989000E-03 0. -1.
     -623   -1    0    0    0    0  0.00000000000E+00  0.00000000000E+00  0.12525980253E-10  0.17130000000E+03  0.17130000000E+03 0.  1.
       11    1    1    2    0    0 -0.20170433464E-02 -0.29265605736E-03  0.30804652993E+00  0.30805369651E+00  0.51109989000E-03 0. -1.
     -623    1    1    2    0    0  0.55835745397E-05 -0.16037523383E-03  0.18679599937E-04  0.17130000000E+03  0.17130000000E+03 0.  1.
      622    1    1    2    0    0  0.20114597718E-02  0.45303129119E-03  0.36919347578E+01  0.36919463034E+01  0.90000000000E-02 0. -1.
</event>
<event>
 5   0  0.6135700E+09  0.9118800E+02  0.7818608E-02  0.1180000E+00
       11   -1    0    0    0    0  0.00000000000E+00  0.00000000000E+00  0.39999999673E+01  0.40000000000E+01  0.51109989000E-03 0.  1.
     -623   -1    0    0    0    0  0.00000000000E+00  0.00000000000E+00  0.12525980253E-10  0.17130000000E+03  0.17130000000E+03 0.  1.
       11    1    1    2    0    0 -0.11036119557E-01 -0.32100404753E-02  0.11888112632E+00  0.11943652587E+00  0.51109989000E-03 0.  1.
     -623    1    1    2    0    0  0.41019141656E-02  0.43415625604E-02  0.57226902351E-03  0.17130000011E+03  0.17130000000E+03 0.  1.
      622    1    1    2    0    0  0.69342053913E-02 -0.11315220850E-02  0.38805465720E+01  0.38805633690E+01  0.90000000000E-02 0.  1.
</event>
<event>
 5   0  0.6135700E+09  0.9118800E+02  0.7818608E-02  0.1180000E+00
       11   -1    0    0    0    0  0.00000000000E+00  0.00000000000E+00  0.39999999673E+01  0.40000000000E+01  0.51109989000E-03 0. -1.
     -623   -1    0    0    0    0  0.00000000000E+00  0.00000000000E+00  0.12525980253E-10  0.17130000000E+03  0.17130000000E+03 0.  1.
       11    1    1    2    0    0 -0.75020182463E-03  0.65630783420E-03  0.22182444305E+00  0.22182727132E+00  0.51109989000E-03 0. -1.
     -623    1    1    2    0    0 -0.24910333788E-03  0.12880271117E-02  0.14152591425E-04  0.17130000001E+03  0.17130000000E+03 0.  1.
      622    1    1    2    0    0  0.99930516348E-03 -0.19443349509E-02  0.37781613872E+01  0.37781727392E+01  0.90000000000E-02 0.  0.
</event>
<event>
 5   0  0.6135700E+09  0.9118800E+02  0.7818608E-02  0.1180000E+00
       11   -1    0    0    0    0  0.00000000000E+00  0.00000000000E+00  0.39999999673E+01  0.40000000000E+01  0.51109989000E-03 0. -1.
     -623   -1    0    0    0    0  0.00000000000E+00  0.00000000000E+00  0.12525980253E-10  0.17130000000E+03  0.17130000000E+03 0. -1.
       11    1    1    2    0    0  0.34704967273E-03 -0.26004051195E-03  0.15168697063E+00  0.15168845158E+00  0.51109989000E-03 0. -1.
     -623    1    1    2    0    0  0.59457307481E-03 -0.21021375351E-03  0.12117516659E-04  0.17130000000E+03  0.17130000000E+03 0. -1.
      622    1    1    2    0    0 -0.94162274754E-03  0.47025426546E-03  0.38483008792E+01  0.38483115473E+01  0.90000000000E-02 0. -1.
</event>
<event>
 5   0  0.6135700E+09  0.9118800E+02  0.7818608E-02  0.1180000E+00
       11   -1    0    0    0    0  0.00000000000E+00  0.00000000000E+00  0.39999999673E+01  0.40000000000E+01  0.51109989000E-03 0. -1.
     -623   -1    0    0    0    0  0.00000000000E+00  0.00000000000E+00  0.12525980253E-10  0.17130000000E+03  0.17130000000E+03 0. -1.
       11    1    1    2    0    0 -0.31290757621E-03  0.57746690369E-03  0.49025860853E+00  0.49025931489E+00  0.51109989000E-03 0. -1.
     -623    1    1    2    0    0 -0.33789859322E-04  0.23117346309E-04  0.12281569170E-04  0.17130000000E+03  0.17130000000E+03 0. -1.
      622    1    1    2    0    0  0.34669743553E-03 -0.60058425000E-03  0.35097290773E+01  0.35097406851E+01  0.90000000000E-02 0. -1.
</event>
<event>
 5   0  0.6135700E+09  0.9118800E+02  0.7818608E-02  0.1180000E+00
       11   -1    0    0    0    0  0.00000000000E+00  0.00000000000E+00  0.39999999673E+01  0.40000000000E+01  0.51109989000E-03 0.  1.
     -623   -1    0    0    0    0  0.00000000000E+00  0.00000000000E+00  0.12525980253E-10  0.17130000000E+03  0.17130000000E+03 0. -1.
       11    1    1    2    0    0 -0.13885431809E-02  0.23100302588E-02  0.81211198329E-01  0.81257518098E-01  0.51109989000E-03 0.  1.
     -623    1    1    2    0    0  0.91201714648E-04 -0.59579134594E-03  0.57212854413E-04  0.17130000000E+03  0.17130000000E+03 0. -1.
      622    1    1    2    0    0  0.12973414662E-02 -0.17142389129E-02  0.39187315562E+01  0.39187424808E+01  0.90000000000E-02 0.  1.
</event>
<event>
 5   0  0.6135700E+09  0.9118800E+02  0.7818608E-02  0.1180000E+00
       11   -1    0    0    0    0  0.00000000000E+00  0.00000000000E+00  0.39999999673E+01  0.40000000000E+01  0.51109989000E-03 0.  1.
     -623   -1    0    0    0    0  0.00000000000E+00  0.00000000000E+00  0.12525980253E-10  0.17130000000E+03  0.17130000000E+03 0. -1.
       11    1    1    2    0    0 -0.61251847407E-03  0.95451595121E-02  0.78898786872E+00  0.78904600845E+00  0.51109989000E-03 0.  1.
     -623    1    1    2    0    0  0.12062788059E-03 -0.26536343998E-03  0.84167726544E-04  0.17130000000E+03  0.17130000000E+03 0. -1.
      622    1    1    2    0    0  0.49189059344E-03 -0.92797960720E-02  0.32109279325E+01  0.32109539929E+01  0.90000000000E-02 0.  1.
</event>
<event>
 5   0  0.6135700E+09  0.9118800E+02  0.7818608E-02  0.1180000E+00
       11   -1    0    0    0    0  0.00000000000E+00  0.00000000000E+00  0.39999999673E+01  0.40000000000E+01  0.51109989000E-03 0.  1.
     -623   -1    0    0    0    0  0.00000000000E+00  0.00000000000E+00  0.12525980253E-10  0.17130000000E+03  0.17130000000E+03 0. -1.
       11    1    1    2    0    0  0.10423828657E-02 -0.76594118372E-03  0.36437891921E-01  0.36464426757E-01  0.51109989000E-03 0.  1.
     -623    1    1    2    0    0 -0.63923519412E-03  0.21582251216E-02  0.37000190431E-04  0.17130000001E+03  0.17130000000E+03 0. -1.
      622    1    1    2    0    0 -0.40314767034E-03 -0.13922839420E-02  0.39635250829E+01  0.39635355661E+01  0.90000000000E-02 0.  1.
</event>
<event>
 5   0  0.6135700E+09  0.9118800E+02  0.7818608E-02  0.1180000E+00
       11   -1    0    0    0    0  0.00000000000E+00  0.00000000000E+00  0.39999999673E+01  0.40000000000E+01  0.51109989000E-03 0.  1.
     -623   -1    0    0    0    0  0.00000000000E+00  0.00000000000E+00  0.12525980253E-10  0.17130000000E+03  0.17130000000E+03 0. -1.
       11    1    1    2    0    0 -0.89235183450E-03 -0.92936235968E-03  0.43143654637E-01  0.43165914385E-01  0.51109989000E-03 0.  1.
     -623    1    1    2    0    0  0.23881173035E-02 -0.22741245313E-02  0.34073827295E-04  0.17130000003E+03  0.17130000000E+03 0. -1.
      622    1    1    2    0    0 -0.14957654736E-02  0.32034868954E-02  0.39568222466E+01  0.39568340615E+01  0.90000000000E-02 0.  1.
</event>
<event>
 5   0  0.6135700E+09  0.9118800E+02  0.7818608E-02  0.1180000E+00
       11   -1    0    0    0    0  0.00000000000E+00  0.00000000000E+00  0.39999999673E+01  0.40000000000E+01  0.51109989000E-03 0. -1.
     -623   -1    0    0    0    0  0.00000000000E+00  0.00000000000E+00  0.12525980253E-10  0.17130000000E+03  0.17130000000E+03 0. -1.
       11    1    1    2    0    0  0.14687930238E-02  0.19821207467E-02  0.36735027195E-01  0.36821319897E-01  0.51109989000E-03 0. -1.
     -623    1    1    2    0    0  0.55272234165E-03 -0.44597835884E-03  0.97293916416E-04  0.17130000000E+03  0.17130000000E+03 0. -1.
      622    1    1    2    0    0 -0.20215153654E-02 -0.15361423879E-02  0.39631676462E+01  0.39631786786E+01  0.90000000000E-02 0. -1.
</event>
<event>
 5   0  0.6135700E+09  0.9118800E+02  0.7818608E-02  0.1180000E+00
       11   -1    0    0    0    0  0.00000000000E+00  0.00000000000E+00  0.39999999673E+01  0.40000000000E+01  0.51109989000E-03 0.  1.
     -623   -1    0    0    0    0  0.00000000000E+00  0.00000000000E+00  0.12525980253E-10  0.17130000000E+03  0.17130000000E+03 0.  1.
       11    1    1    2    0    0  0.13137266328E-03 -0.13334370155E-02  0.13070831625E+00  0.13071618291E+00  0.51109989000E-03 0.  1.
     -623    1    1    2    0    0 -0.56517309530E-03  0.78174279510E-03  0.18367447626E-04  0.17130000000E+03  0.17130000000E+03 0.  1.
      622    1    1    2    0    0  0.43380043017E-03  0.55169422293E-03  0.38692732706E+01  0.38692838013E+01  0.90000000000E-02 0.  1.
</event>
<event>
 5   0  0.6135700E+09  0.9118800E+02  0.7818608E-02  0.1180000E+00
       11   -1    0    0    0    0  0.00000000000E+00  0.00000000000E+00  0.39999999673E+01  0.40000000000E+01  0.51109989000E-03 0. -1.
     -623   -1    0    0    0    0  0.00000000000E+00  0.00000000000E+00  0.12525980253E-10  0.17130000000E+03  0.17130000000E+03 0. -1.
       11    1    1    2    0    0  0.22319654179E-02  0.61970420792E-03  0.39687879850E-01  0.39758706380E-01  0.51109989000E-03 0.  1.
     -623    1    1    2    0    0 -0.44392557604E-03 -0.74770683017E-03  0.81428496673E-04  0.17130000000E+03  0.17130000000E+03 0. -1.
      622    1    1    2    0    0 -0.17880398411E-02  0.12800262351E-03  0.39602306658E+01  0.39602412981E+01  0.90000000000E-02 0. -1.
</event>
<event>
 5   0  0.6135700E+09  0.9118800E+02  0.7818608E-02  0.1180000E+00
       11   -1    0    0    0    0  0.00000000000E+00  0.00000000000E+00  0.39999999673E+01  0.40000000000E+01  0.51109989000E-03 0.  1.
     -623   -1    0    0    0    0  0.00000000000E+00  0.00000000000E+00  0.12525980253E-10  0.17130000000E+03  0.17130000000E+03 0.  1.
       11    1    1    2    0    0 -0.14510327092E-01 -0.26578545749E-02  0.37770533690E+00  0.37799364614E+00  0.51109989000E-03 0.  1.
     -623    1    1    2    0    0  0.16124218060E-01  0.71939322017E-02  0.30356846049E-03  0.17130000091E+03  0.17130000000E+03 0.  1.
      622    1    1    2    0    0 -0.16138909681E-02 -0.45360776268E-02  0.36219910620E+01  0.36220054437E+01  0.90000000000E-02 0.  1.
</event>
<event>
 5   0  0.6135700E+09  0.9118800E+02  0.7818608E-02  0.1180000E+00
       11   -1    0    0    0    0  0.00000000000E+00  0.00000000000E+00  0.39999999673E+01  0.40000000000E+01  0.51109989000E-03 0.  1.
     -623   -1    0    0    0    0  0.00000000000E+00  0.00000000000E+00  0.12525980253E-10  0.17130000000E+03  0.17130000000E+03 0.  1.
       11    1    1    2    0    0  0.50525753291E-03 -0.18124386878E-03  0.43889274171E-01  0.43895532175E-01  0.51109989000E-03 0.  1.
     -623    1    1    2    0    0 -0.15707631334E-02  0.13837901631E-02  0.16801770277E-04  0.17130000001E+03  0.17130000000E+03 0.  1.
      622    1    1    2    0    0  0.10655056034E-02 -0.12025462969E-02  0.39560938989E+01  0.39561044625E+01  0.90000000000E-02 0.  0.
</event>
<event>
 5   0  0.6135700E+09  0.9118800E+02  0.7818608E-02  0.1180000E+00
       11   -1    0    0    0    0  0.00000000000E+00  0.00000000000E+00  0.39999999673E+01  0.40000000000E+01  0.51109989000E-03 0. -1.
     -623   -1    0    0    0    0  0.00000000000E+00  0.00000000000E+00  0.12525980253E-10  0.17130000000E+03  0.17130000000E+03 0.  1.
       11    1    1    2    0    0  0.64689579618E-03 -0.55530471455E-03  0.90971132472E-01  0.90976562937E-01  0.51109989000E-03 0. -1.
     -623    1    1    2    0    0  0.23621891531E-03  0.85307864983E-04  0.15886677799E-04  0.17130000000E+03  0.17130000000E+03 0.  1.
      622    1    1    2    0    0 -0.88311471170E-03  0.46999684949E-03  0.39090129518E+01  0.39090234405E+01  0.90000000000E-02 0. -1.
</event>
<event>
 5   0  0.6135700E+09  0.9118800E+02  0.7818608E-02  0.1180000E+00
       11   -1    0    0    0    0  0.00000000000E+00  0.00000000000E+00  0.39999999673E+01  0.40000000000E+01  0.51109989000E-03 0. -1.
     -623   -1    0    0    0    0  0.00000000000E+00  0.00000000000E+00  0.12525980253E-10  0.17130000000E+03  0.17130000000E+03 0.  1.
       11    1    1    2    0    0  0.23055920007E-05  0.99998300047E-03  0.71562534377E-01  0.71571345656E-01  0.51109989000E-03 0. -1.
     -623    1    1    2    0    0 -0.29148965862E-04 -0.27934075858E-04  0.19208477374E-04  0.17130000000E+03  0.17130000000E+03 0.  1.
      622    1    1    2    0    0  0.26843373862E-04 -0.97204892461E-03  0.39284182245E+01  0.39284286543E+01  0.90000000000E-02 0. -1.
</event>
<event>
 5   0  0.6135700E+09  0.9118800E+02  0.7818608E-02  0.1180000E+00
       11   -1    0    0    0    0  0.00000000000E+00  0.00000000000E+00  0.39999999673E+01  0.40000000000E+01  0.51109989000E-03 0. -1.
     -623   -1    0    0    0    0  0.00000000000E+00  0.00000000000E+00  0.12525980253E-10  0.17130000000E+03  0.17130000000E+03 0.  1.
       11    1    1    2    0    0  0.17665617037E-01 -0.80800517998E-02  0.10751720979E+00  0.10925920046E+00  0.51109989000E-03 0. -1.
     -623    1    1    2    0    0 -0.23830382945E-01  0.18042758200E-01  0.17726237328E-02  0.17130000262E+03  0.17130000000E+03 0.  1.
      622    1    1    2    0    0  0.61647659071E-02 -0.99627063998E-02  0.38907101338E+01  0.38907381826E+01  0.90000000000E-02 0. -1.
</event>
<event>
 5   0  0.6135700E+09  0.9118800E+02  0.7818608E-02  0.1180000E+00
       11   -1    0    0    0    0  0.00000000000E+00  0.00000000000E+00  0.39999999673E+01  0.40000000000E+01  0.51109989000E-03 0.  1.
     -623   -1    0    0    0    0  0.00000000000E+00  0.00000000000E+00  0.12525980253E-10  0.17130000000E+03  0.17130000000E+03 0.  1.
       11    1    1    2    0    0 -0.25199305570E-03 -0.20489224749E-02  0.11836310957E+00  0.11838221367E+00  0.51109989000E-03 0.  1.
     -623    1    1    2    0    0 -0.74933069873E-03  0.13469009271E-03  0.30108117880E-04  0.17130000000E+03  0.17130000000E+03 0.  1.
      622    1    1    2    0    0  0.10013237544E-02  0.19142323822E-02  0.38816067497E+01  0.38816177846E+01  0.90000000000E-02 0.  1.
</event>
<event>
 5   0  0.6135700E+09  0.9118800E+02  0.7818608E-02  0.1180000E+00
       11   -1    0    0    0    0  0.00000000000E+00  0.00000000000E+00  0.39999999673E+01  0.40000000000E+01  0.51109989000E-03 0. -1.
     -623   -1    0    0    0    0  0.00000000000E+00  0.00000000000E+00  0.12525980253E-10  0.17130000000E+03  0.17130000000E+03 0.  1.
       11    1    1    2    0    0 -0.34099982999E-03 -0.66581990941E-03  0.19726802433E-01  0.19747596167E-01  0.51109989000E-03 0. -1.
     -623    1    1    2    0    0 -0.12173612425E-02  0.23917578336E-03  0.31268770346E-04  0.17130000000E+03  0.17130000000E+03 0.  1.
      622    1    1    2    0    0  0.15583610723E-02  0.42664412609E-03  0.39802418956E+01  0.39802523988E+01  0.90000000000E-02 0. -1.
</event>
<event>
 5   0  0.6135700E+09  0.9118800E+02  0.7818608E-02  0.1180000E+00
       11   -1    0    0    0    0  0.00000000000E+00  0.00000000000E+00  0.39999999673E+01  0.40000000000E+01  0.51109989000E-03 0.  1.
     -623   -1    0    0    0    0  0.00000000000E+00  0.00000000000E+00  0.12525980253E-10  0.17130000000E+03  0.17130000000E+03 0. -1.
       11    1    1    2    0    0  0.33596903643E-03 -0.95703801334E-03  0.93491083805E-01  0.93497982712E-01  0.51109989000E-03 0.  1.
     -623    1    1    2    0    0  0.12112383465E-03  0.49251646960E-04  0.17365878800E-04  0.17130000000E+03  0.17130000000E+03 0. -1.
      622    1    1    2    0    0 -0.45709287182E-03  0.90778636608E-03  0.39064915420E+01  0.39065020415E+01  0.90000000000E-02 0.  1.
</event>
<event>
 5   0  0.6135700E+09  0.9118800E+02  0.7818608E-02  0.1180000E+00
       11   -1    0    0    0    0  0.00000000000E+00  0.00000000000E+00  0.39999999673E+01  0.40000000000E+01  0.51109989000E-03 0.  1.
     -623   -1    0    0    0    0  0.00000000000E+00  0.00000000000E+00  0.12525980253E-10  0.17130000000E+03  0.17130000000E+03 0.  1.
       11    1    1    2    0    0  0.12827405245E-02 -0.21055484890E-03  0.14302484667E-01  0.14370527007E-01  0.51109989000E-03 0.  1.
     -623    1    1    2    0    0  0.14337885865E-03 -0.13515781816E-02  0.78737906967E-04  0.17130000001E+03  0.17130000000E+03 0.  1.
      622    1    1    2    0    0 -0.14261193831E-02  0.15621330305E-02  0.39856187448E+01  0.39856294676E+01  0.90000000000E-02 0.  1.
</event>
<event>
 5   0  0.6135700E+09  0.9118800E+02  0.7818608E-02  0.1180000E+00
       11   -1    0    0    0    0  0.00000000000E+00  0.00000000000E+00  0.39999999673E+01  0.40000000000E+01  0.51109989000E-03 0.  1.
     -623   -1    0    0    0    0  0.00000000000E+00  0.00000000000E+00  0.12525980253E-10  0.17130000000E+03  0.17130000000E+03 0.  1.
       11    1    1    2    0    0  0.86263236295E-03  0.26796591739E-02  0.33296690029E+00  0.33297919247E+00  0.51109989000E-03 0.  1.
     -623    1    1    2    0    0  0.12467269558E-03 -0.16259942482E-04  0.24404136610E-04  0.17130000000E+03  0.17130000000E+03 0.  1.
      622    1    1    2    0    0 -0.98730505853E-03 -0.26633992314E-02  0.36670086629E+01  0.36670208075E+01  0.90000000000E-02 0.  1.
</event>
<event>
 5   0  0.6135700E+09  0.9118800E+02  0.7818608E-02  0.1180000E+00
       11   -1    0    0    0    0  0.00000000000E+00  0.00000000000E+00  0.39999999673E+01  0.40000000000E+01  0.51109989000E-03 0.  1.
     -623   -1    0    0    0    0  0.00000000000E+00  0.00000000000E+00  0.12525980253E-10  0.17130000000E+03  0.17130000000E+03 0. -1.
       11    1    1    2    0    0  0.23040616772E-03 -0.16757700699E-03  0.70690325385E-02  0.70932089482E-02  0.51109989000E-03 0.  1.
     -623    1    1    2    0    0 -0.88948054336E-03  0.21771896507E-04  0.34346139351E-04  0.17130000000E+03  0.17130000000E+03 0. -1.
      622    1    1    2    0    0  0.65907437537E-03  0.14580511049E-03  0.39928965874E+01  0.39929067875E+01  0.90000000000E-02 0.  1.
</event>
<event>
 5   0  0.6135700E+09  0.9118800E+02  0.7818608E-02  0.1180000E+00
       11   -1    0    0    0    0  0.00000000000E+00  0.00000000000E+00  0.39999999673E+01  0.40000000000E+01  0.51109989000E-03 0. -1.
     -623   -1    0    0    0    0  0.00000000000E+00  0.00000000000E+00  0.12525980253E-10  0.17130000000E+03  0.17130000000E+03 0. -1.
       11    1    1    2    0    0  0.42786330762E-03  0.33480661102E-03  0.20723337557E-01  0.20736757342E-01  0.51109989000E-03 0.  1.
     -623    1    1    2    0    0  0.17402681961E-03  0.11823737160E-02  0.23903842183E-04  0.17130000000E+03  0.17130000000E+03 0. -1.
      622    1    1    2    0    0 -0.60189012692E-03 -0.15171803249E-02  0.39792527188E+01  0.39792632313E+01  0.90000000000E-02 0. -1.
</event>
<event>
 5   0  0.6135700E+09  0.9118800E+02  0.7818608E-02  0.1180000E+00
       11   -1    0    0    0    0  0.00000000000E+00  0.00000000000E+00  0.39999999673E+01  0.40000000000E+01  0.51109989000E-03 0. -1.
     -623   -1    0    0    0    0  0.00000000000E+00  0.00000000000E+00  0.12525980253E-10  0.17130000000E+03  0.17130000000E+03 0. -1.
       11    1    1    2    0    0  0.52519733826E-02  0.51075944698E-02  0.43553440597E+00  0.43559631627E+00  0.51109989000E-03 0. -1.
     -623    1    1    2    0    0 -0.50296700329E-02 -0.67431693419E-02  0.73828796759E-04  0.17130000021E+03  0.17130000000E+03 0. -1.
      622    1    1    2    0    0 -0.22230335207E-03  0.16355748689E-02  0.35643917307E+01  0.35644034752E+01  0.90000000000E-02 0.  0.
</event>
<event>
 5   0  0.6135700E+09  0.9118800E+02  0.7818608E-02  0.1180000E+00
       11   -1    0    0    0    0  0.00000000000E+00  0.00000000000E+00  0.39999999673E+01  0.40000000000E+01  0.51109989000E-03 0. -1.
     -623   -1    0    0    0    0  0.00000000000E+00  0.00000000000E+00  0.12525980253E-10  0.17130000000E+03  0.17130000000E+03 0.  1.
       11    1    1    2    0    0  0.43454771474E-03  0.29272655352E-02  0.94976747661E+00  0.94977222457E+00  0.51109989000E-03 0. -1.
     -623    1    1    2    0    0 -0.23011197583E-04 -0.35150053971E-04  0.19391919890E-04  0.17130000000E+03  0.17130000000E+03 0.  1.
      622    1    1    2    0    0 -0.41153651715E-03 -0.28921154812E-02  0.30502130988E+01  0.30502277754E+01  0.90000000000E-02 0. -1.
</event>
<event>
 5   0  0.6135700E+09  0.9118800E+02  0.7818608E-02  0.1180000E+00
       11   -1    0    0    0    0  0.00000000000E+00  0.00000000000E+00  0.39999999673E+01  0.40000000000E+01  0.51109989000E-03 0. -1.
     -623   -1    0    0    0    0  0.00000000000E+00  0.00000000000E+00  0.12525980253E-10  0.17130000000E+03  0.17130000000E+03 0.  1.
       11    1    1    2    0    0  0.10549860344E-02 -0.22349823133E-03  0.18978072804E-01  0.19015557247E-01  0.51109989000E-03 0. -1.
     -623    1    1    2    0    0 -0.17586166883E-03  0.90674199469E-03  0.47783377370E-04  0.17130000000E+03  0.17130000000E+03 0.  1.
      622    1    1    2    0    0 -0.87912436590E-03 -0.68324376192E-03  0.39809741048E+01  0.39809844339E+01  0.90000000000E-02 0. -1.
</event>
<event>
 5   0  0.6135700E+09  0.9118800E+02  0.7818608E-02  0.1180000E+00
       11   -1    0    0    0    0  0.00000000000E+00  0.00000000000E+00  0.39999999673E+01  0.40000000000E+01  0.51109989000E-03 0. -1.
     -623   -1    0    0    0    0  0.00000000000E+00  0.00000000000E+00  0.12525980253E-10  0.17130000000E+03  0.17130000000E+03 0.  1.
       11    1    1    2    0    0 -0.34711794549E-03  0.75608096306E-03  0.11518016176E-01  0.11559328225E-01  0.51109989000E-03 0. -1.
     -623    1    1    2    0    0 -0.18246920759E-03 -0.73504890391E-03  0.51470663335E-04  0.17130000000E+03  0.17130000000E+03 0.  1.
      622    1    1    2    0    0  0.52958715312E-03 -0.21032058989E-04  0.39884304814E+01  0.39884406710E+01  0.90000000000E-02 0. -1.
</event>
<event>
 5   0  0.6135700E+09  0.9118800E+02  0.7818608E-02  0.1180000E+00
       11   -1    0    0    0    0  0.00000000000E+00  0.00000000000E+00  0.39999999673E+01  0.40000000000E+01  0.51109989000E-03 0. -1.
     -623   -1    0    0    0    0  0.00000000000E+00  0.00000000000E+00  0.12525980253E-10  0.17130000000E+03  0.17130000000E+03 0.  1.
       11    1    1    2    0    0  0.10110458634E-02  0.26564375275E-02  0.33748827307E-01  0.33872163194E-01  0.51109989000E-03 0. -1.
     -623    1    1    2    0    0 -0.23062930941E-02 -0.18642160666E-02  0.13383107456E-03  0.17130000003E+03  0.17130000000E+03 0.  1.
      622    1    1    2    0    0  0.12952472307E-02 -0.79222146086E-03  0.39661173090E+01  0.39661278111E+01  0.90000000000E-02 0. -1.
</event>
<event>
 5   0  0.6135700E+09  0.9118800E+02  0.7818608E-02  0.1180000E+00
       11   -1    0    0    0    0  0.00000000000E+00  0.00000000000E+00  0.39999999673E+01  0.40000000000E+01  0.51109989000E-03 0.  1.
     -623   -1    0    0    0    0  0.00000000000E+00  0.00000000000E+00  0.12525980253E-10  0.17130000000E+03  0.17130000000E+03 0. -1.
       11    1    1    2    0    0  0.90042198276E-03  0.37263689903E-03  0.25942657201E+00  0.25942890568E+00  0.51109989000E-03 0.  1.
     -623    1    1    2    0    0 -0.45634489790E-03  0.34397981833E-03  0.13224234970E-04  0.17130000000E+03  0.17130000000E+03 0. -1.
      622    1    1    2    0    0 -0.44407708389E-03 -0.71661671809E-03  0.37405601796E+01  0.37405711019E+01  0.90000000000E-02 0.  1.
</event>
<event>
 5   0  0.6135700E+09  0.9118800E+02  0.7818608E-02  0.1180000E+00
       11   -1    0    0    0    0  0.00000000000E+00  0.00000000000E+00  0.39999999673E+01  0.40000000000E+01  0.51109989000E-03 0. -1.
     -623   -1    0    0    0    0  0.00000000000E+00  0.00000000000E+00  0.12525980253E-10  0.17130000000E+03  0.17130000000E+03 0. -1.
       11    1    1    2    0    0  0.87785503519E-02  0.16299533757E-02  0.57603752328E+00  0.57610694245E+00  0.51109989000E-03 0. -1.
     -623    1    1    2    0    0 -0.37427239542E-03 -0.45004666600E-02  0.92792649931E-04  0.17130000006E+03  0.17130000000E+03 0. -1.
      622    1    1    2    0    0 -0.84042779565E-02  0.28705132843E-02  0.34238696514E+01  0.34238929980E+01  0.90000000000E-02 0.  1.
</event>
<event>
 5   0  0.6135700E+09  0.9118800E+02  0.7818608E-02  0.1180000E+00
       11   -1    0    0    0    0  0.00000000000E+00  0.00000000000E+00  0.39999999673E+01  0.40000000000E+01  0.51109989000E-03 0.  1.
     -623   -1    0    0    0    0  0.00000000000E+00  0.00000000000E+00  0.12525980253E-10  0.17130000000E+03  0.17130000000E+03 0.  1.
       11    1    1    2    0    0 -0.11722274598E-02 -0.33319775412E-05  0.80876077588E+00  0.80876178690E+00  0.51109989000E-03 0.  1.
     -623    1    1    2    0    0  0.73682336681E-03  0.25320801853E-02  0.14721307055E-04  0.17130000002E+03  0.17130000000E+03 0.  1.
      622    1    1    2    0    0  0.43540409583E-03 -0.25287481981E-02  0.31912244550E+01  0.31912381776E+01  0.90000000000E-02 0.  1.
</event>
<event>
 5   0  0.6135700E+09  0.9118800E+02  0.7818608E-02  0.1180000E+00
       11   -1    0    0    0    0  0.00000000000E+00  0.00000000000E+00  0.39999999673E+01  0.40000000000E+01  0.51109989000E-03 0.  1.
     -623   -1    0    0    0    0  0.00000000000E+00  0.00000000000E+00  0.12525980253E-10  0.17130000000E+03  0.17130000000E+03 0. -1.
       11    1    1    2    0    0  0.70532844765E-02 -0.52660558007E-02  0.28145003047E+00  0.28158810529E+00  0.51109989000E-03 0.  1.
     -623    1    1    2    0    0  0.29115496211E-02  0.35181766009E-02  0.16275795611E-03  0.17130000006E+03  0.17130000000E+03 0. -1.
      622    1    1    2    0    0 -0.99648340963E-02  0.17478792012E-02  0.37183871772E+01  0.37184118321E+01  0.90000000000E-02 0.  1.
</event>
<event>
 5   0  0.6135700E+09  0.9118800E+02  0.7818608E-02  0.1180000E+00
       11   -1    0    0    0    0  0.00000000000E+00  0.00000000000E+00  0.39999999673E+01  0.40000000000E+01  0.51109989000E-03 0.  1.
     -623   -1    0    0    0    0  0.00000000000E+00  0.00000000000E+00  0.12525980253E-10  0.17130000000E+03  0.17130000000E+03 0. -1.
       11    1    1    2    0    0 -0.76742013032E-03  0.15144163397E-02  0.52237156539E+00  0.52237457437E+00  0.51109989000E-03 0.  1.
     -623    1    1    2    0    0 -0.51310374273E-04  0.61618966587E-04  0.15075749828E-04  0.17130000000E+03  0.17130000000E+03 0. -1.
      622    1    1    2    0    0  0.81873050460E-03 -0.15760353063E-02  0.34776133262E+01  0.34776254256E+01  0.90000000000E-02 0.  0.
</event>
<event>
 5   0  0.6135700E+09  0.9118800E+02  0.7818608E-02  0.1180000E+00
       11   -1    0    0    0    0  0.00000000000E+00  0.00000000000E+00  0.39999999673E+01  0.40000000000E+01  0.51109989000E-03 0.  1.
     -623   -1    0    0    0    0  0.00000000000E+00  0.00000000000E+00  0.12525980253E-10  0.17130000000E+03  0.17130000000E+03 0.  1.
       11    1    1    2    0    0 -0.38570538850E-04  0.36117633802E-03  0.13372580297E-02  0.14769615336E-02  0.51109989000E-03 0.  1.
     -623    1    1    2    0    0  0.78050167766E-03 -0.70491134797E-03  0.14988651883E-03  0.17130000000E+03  0.17130000000E+03 0.  1.
      622    1    1    2    0    0 -0.74193113881E-03  0.34373500995E-03  0.39985128228E+01  0.39985230352E+01  0.90000000000E-02 0.  1.
</event>
<event>
 5   0  0.6135700E+09  0.9118800E+02  0.7818608E-02  0.1180000E+00
       11   -1    0    0    0    0  0.00000000000E+00  0.00000000000E+00  0.39999999673E+01  0.40000000000E+01  0.51109989000E-03 0. -1.
     -623   -1    0    0    0    0  0.00000000000E+00  0.00000000000E+00  0.12525980253E-10  0.17130000000E+03  0.17130000000E+03 0. -1.
       11    1    1    2    0    0  0.24854654517E-02  0.11999859840E-02  0.27998826298E+00  0.28000233237E+00  0.51109989000E-03 0. -1.
     -623    1    1    2    0    0  0.22151289719E-02 -0.21491339956E-03  0.28038602861E-04  0.17130000001E+03  0.17130000000E+03 0. -1.
      622    1    1    2    0    0 -0.47005944235E-02 -0.98507258441E-03  0.37199836658E+01  0.37199976532E+01  0.90000000000E-02 0.  0.
</event>
<event>
 5   0  0.6135700E+09  0.9118800E+02  0.7818608E-02  0.1180000E+00
       11   -1    0    0    0    0  0.00000000000E+00  0.00000000000E+00  0.39999999673E+01  0.40000000000E+01  0.51109989000E-03 0.  1.
     -623   -1    0    0    0    0  0.00000000000E+00  0.00000000000E+00  0.12525980253E-10  0.17130000000E+03  0.17130000000E+03 0.  1.
       11    1    1    2    0    0  0.36798263807E-03  0.64070372756E-03  0.68263269247E-01  0.68269180919E-01  0.51109989000E-03 0.  1.
     -623    1    1    2    0    0  0.17838118476E-04 -0.24358545597E-03  0.16219012575E-04  0.17130000000E+03  0.17130000000E+03 0.  1.
      622    1    1    2    0    0 -0.38582075654E-03 -0.39711827159E-03  0.39317204791E+01  0.39317308189E+01  0.90000000000E-02 0.  1.
</event>
<event>
 5   0  0.6135700E+09  0.9118800E+02  0.7818608E-02  0.1180000E+00
       11   -1    0    0    0    0  0.00000000000E+00  0.00000000000E+00  0.39999999673E+01  0.40000000000E+01  0.51109989000E-03 0.  1.
     -623   -1    0    0    0    0  0.00000000000E+00  0.00000000000E+00  0.12525980253E-10  0.17130000000E+03  0.17130000000E+03 0. -1.
       11    1    1    2    0    0 -0.91532204936E-03  0.41748498591E-03  0.52227586456E+00  0.52227708358E+00  0.51109989000E-03 0.  1.
     -623    1    1    2    0    0 -0.28850789782E-03 -0.16011266191E-03  0.13050148982E-04  0.17130000000E+03  0.17130000000E+03 0. -1.
      622    1    1    2    0    0  0.12038299479E-02 -0.25737232360E-03  0.34777110627E+01  0.34777229262E+01  0.90000000000E-02 0.  1.
</event>
<event>
 5   0  0.6135700E+09  0.9118800E+02  0.7818608E-02  0.1180000E+00
       11   -1    0    0    0    0  0.00000000000E+00  0.00000000000E+00  0.39999999673E+01  0.40000000000E+01  0.51109989000E-03 0.  1.
     -623   -1    0    0    0    0  0.00000000000E+00  0.00000000000E+00  0.12525980253E-10  0.17130000000E+03  0.17130000000E+03 0.  1.
       11    1    1    2    0    0 -0.13551287065E-03  0.52022476834E-03  0.11867215046E-01  0.11890374727E-01  0.51109989000E-03 0.  1.
     -623    1    1    2    0    0  0.13373932201E-02 -0.12474240515E-02  0.33539410173E-04  0.17130000001E+03  0.17130000000E+03 0.  1.
      622    1    1    2    0    0 -0.12018803494E-02  0.72719928315E-03  0.39880992129E+01  0.39881096155E+01  0.90000000000E-02 0.  1.
</event>
<event>
 5   0  0.6135700E+09  0.9118800E+02  0.7818608E-02  0.1180000E+00
       11   -1    0    0    0    0  0.00000000000E+00  0.00000000000E+00  0.39999999673E+01  0.40000000000E+01  0.51109989000E-03 0. -1.
     -623   -1    0    0    0    0  0.00000000000E+00  0.00000000000E+00  0.12525980253E-10  0.17130000000E+03  0.17130000000E+03 0.  1.
       11    1    1    2    0    0 -0.18101067684E-02 -0.11940885103E-02  0.20108050203E+00  0.20109284386E+00  0.51109989000E-03 0. -1.
     -623    1    1    2    0    0 -0.12199793788E-02  0.12882434115E-02  0.24188960027E-04  0.17130000001E+03  0.17130000000E+03 0.  1.
      622    1    1    2    0    0  0.30300861522E-02 -0.94154906403E-04  0.37988952926E+01  0.37989071632E+01  0.90000000000E-02 0. -1.
</event>
<event>
 5   0  0.6135700E+09  0.9118800E+02  0.7818608E-02  0.1180000E+00
       11   -1    0    0    0    0  0.00000000000E+00  0.00000000000E+00  0.39999999673E+01  0.40000000000E+01  0.51109989000E-03 0. -1.
     -623   -1    0    0    0    0  0.00000000000E+00  0.00000000000E+00  0.12525980253E-10  0.17130000000E+03  0.17130000000E+03 0. -1.
       11    1    1    2    0    0  0.24428671618E-02  0.20551753393E-02  0.99145415884E+00  0.99145943016E+00  0.51109989000E-03 0. -1.
     -623    1    1    2    0    0 -0.87228783833E-04  0.75032701856E-04  0.20376795770E-04  0.17130000000E+03  0.17130000000E+03 0. -1.
      622    1    1    2    0    0 -0.23556383780E-02 -0.21302080412E-02  0.30085254317E+01  0.30085405698E+01  0.90000000000E-02 0. -1.
</event>
<event>
 5   0  0.6135700E+09  0.9118800E+02  0.7818608E-02  0.1180000E+00
       11   -1    0    0    0    0  0.00000000000E+00  0.00000000000E+00  0.39999999673E+01  0.40000000000E+01  0.51109989000E-03 0. -1.
     -623   -1    0    0    0    0  0.00000000000E+00  0.00000000000E+00  0.12525980253E-10  0.17130000000E+03  0.17130000000E+03 0. -1.
       11    1    1    2    0    0  0.17623000922E-02 -0.27260069773E-03  0.15864362081E+00  0.15865446625E+00  0.51109989000E-03 0. -1.
     -623    1    1    2    0    0 -0.11024441400E-02 -0.36467279003E-03  0.21469462946E-04  0.17130000000E+03  0.17130000000E+03 0. -1.
      622    1    1    2    0    0 -0.65985594669E-03  0.63727348960E-03  0.38413348974E+01  0.38413455501E+01  0.90000000000E-02 0. -1.
</event>
<event>
 5   0  0.6135700E+09  0.9118800E+02  0.7818608E-02  0.1180000E+00
       11   -1    0    0    0    0  0.00000000000E+00  0.00000000000E+00  0.39999999673E+01  0.40000000000E+01  0.51109989000E-03 0.  1.
     -623   -1    0    0    0    0  0.00000000000E+00  0.00000000000E+00  0.12525980253E-10  0.17130000000E+03  0.17130000000E+03 0. -1.
       11    1    1    2    0    0  0.48158595729E-02 -0.88484575600E-02  0.96572392607E-01  0.97097764856E-01  0.51109989000E-03 0.  1.
     -623    1    1    2    0    0  0.53631495283E-02 -0.68799257773E-02  0.58090580159E-03  0.17130000022E+03  0.17130000000E+03 0. -1.
      622    1    1    2    0    0 -0.10179009101E-01  0.15728383337E-01  0.39028466690E+01  0.39029020120E+01  0.90000000000E-02 0.  1.
</event>
<event>
 5   0  0.6135700E+09  0.9118800E+02  0.7818608E-02  0.1180000E+00
       11   -1    0    0    0    0  0.00000000000E+00  0.00000000000E+00  0.39999999673E+01  0.40000000000E+01  0.51109989000E-03 0.  1.
     -623   -1    0    0    0    0  0.00000000000E+00  0.00000000000E+00  0.12525980253E-10  0.17130000000E+03  0.17130000000E+03 0. -1.
       11    1    1    2    0    0 -0.39425124735E-02 -0.92933182256E-04  0.28081445634E+00  0.28084261100E+00  0.51109989000E-03 0.  1.
     -623    1    1    2    0    0 -0.20941575124E-02 -0.63983030228E-04  0.43926891411E-04  0.17130000001E+03  0.17130000000E+03 0. -1.
      622    1    1    2    0    0  0.60366699869E-02  0.15691621251E-03  0.37191415859E+01  0.37191573780E+01  0.90000000000E-02 0.  1.
</event>
<event>
 5   0  0.6135700E+09  0.9118800E+02  0.7818608E-02  0.1180000E+00
       11   -1    0    0    0    0  0.00000000000E+00  0.00000000000E+00  0.39999999673E+01  0.40000000000E+01  0.51109989000E-03 0. -1.
     -623   -1    0    0    0    0  0.00000000000E+00  0.00000000000E+00  0.12525980253E-10  0.17130000000E+03  0.17130000000E+03 0.  1.
       11    1    1    2    0    0 -0.21921860191E-02 -0.36853437645E-03  0.74342122980E+00  0.74342472896E+00  0.51109989000E-03 0. -1.
     -623    1    1    2    0    0  0.61966789121E-03  0.18116436462E-02  0.16613043331E-04  0.17130000001E+03  0.17130000000E+03 0.  1.
      622    1    1    2    0    0  0.15725181255E-02 -0.14431092767E-02  0.32565621399E+01  0.32565752758E+01  0.90000000000E-02 0.  1.
</event>
<event>
 5   0  0.6135700E+09  0.9118800E+02  0.7818608E-02  0.1180000E+00
       11   -1    0    0    0    0  0.00000000000E+00  0.00000000000E+00  0.39999999673E+01  0.40000000000E+01  0.51109989000E-03 0. -1.
     -623   -1    0    0    0    0  0.00000000000E+00  0.00000000000E+00  0.12525980253E-10  0.17130000000E+03  0.17130000000E+03 0. -1.
       11    1    1    2    0    0  0.36425603136E-03 -0.70887562139E-02  0.71333390325E+00  0.71336940073E+00  0.51109989000E-03 0. -1.
     -623    1    1    2    0    0 -0.17954303729E-02 -0.10854706437E-02  0.58277150433E-04  0.17130000001E+03  0.17130000000E+03 0. -1.
      622    1    1    2    0    0  0.14311743459E-02  0.81742268603E-02  0.32866077968E+01  0.32866305963E+01  0.90000000000E-02 0. -1.
</event>
<event>
 5   0  0.6135700E+09  0.9118800E+02  0.7818608E-02  0.1180000E+00
       11   -1    0    0    0    0  0.00000000000E+00  0.00000000000E+00  0.39999999673E+01  0.40000000000E+01  0.51109989000E-03 0.  1.
     -623   -1    0    0    0    0  0.00000000000E+00  0.00000000000E+00  0.12525980253E-10  0.17130000000E+03  0.17130000000E+03 0. -1.
       11    1    1    2    0    0  0.40529898353E-03 -0.16559924523E-02  0.49866950810E-01  0.49898703226E-01  0.51109989000E-03 0.  1.
     -623    1    1    2    0    0 -0.11614798817E-02 -0.37074070087E-04  0.42411853880E-04  0.17130000000E+03  0.17130000000E+03 0. -1.
      622    1    1    2    0    0  0.75618089817E-03  0.16930665224E-02  0.39500906047E+01  0.39501012928E+01  0.90000000000E-02 0.  1.
</event>
<event>
 5   0  0.6135700E+09  0.9118800E+02  0.7818608E-02  0.1180000E+00
       11   -1    0    0    0    0  0.00000000000E+00  0.00000000000E+00  0.39999999673E+01  0.40000000000E+01  0.51109989000E-03 0. -1.
     -623   -1    0    0    0    0  0.00000000000E+00  0.00000000000E+00  0.12525980253E-10  0.17130000000E+03  0.17130000000E+03 0. -1.
       11    1    1    2    0    0 -0.38491121138E-03 -0.49924278417E-03  0.98752603677E-02  0.99085513788E-02  0.51109989000E-03 0. -1.
     -623    1    1    2    0    0 -0.63427136451E-04  0.17228777174E-03  0.43447215114E-04  0.17130000000E+03  0.17130000000E+03 0. -1.
      622    1    1    2    0    0  0.44833834780E-03  0.32695501250E-03  0.39900812580E+01  0.39900914467E+01  0.90000000000E-02 0. -1.
</event>
<event>
 5   0  0.6135700E+09  0.9118800E+02  0.7818608E-02  0.1180000E+00
       11   -1    0    0    0    0  0.00000000000E+00  0.00000000000E+00  0.39999999673E+01  0.40000000000E+01  0.51109989000E-03 0.  1.
     -623   -1    0    0    0    0  0.00000000000E+00  0.00000000000E+00  0.12525980253E-10  0.17130000000E+03  0.17130000000E+03 0.  1.
       11    1    1    2    0    0 -0.56508948288E-03 -0.11859441894E-03  0.35903707715E+00  0.35903790522E+00  0.51109989000E-03 0.  1.
     -623    1    1    2    0    0 -0.91169222209E-03 -0.21817675474E-04  0.12223506148E-04  0.17130000000E+03  0.17130000000E+03 0.  1.
      622    1    1    2    0    0  0.14767817055E-02  0.14041209442E-03  0.36409506690E+01  0.36409620947E+01  0.90000000000E-02 0.  1.
</event>
<event>
 5   0  0.6135700E+09  0.9118800E+02  0.7818608E-02  0.1180000E+00
       11   -1    0    0    0    0  0.00000000000E+00  0.00000000000E+00  0.39999999673E+01  0.40000000000E+01  0.51109989000E-03 0.  1.
     -623   -1    0    0    0    0  0.00000000000E+00  0.00000000000E+00  0.12525980253E-10  0.17130000000E+03  0.17130000000E+03 0.  1.
       11    1    1    2    0    0  0.10102989568E-02  0.22884963284E-02  0.15225607071E+00  0.15227747769E+00  0.51109989000E-03 0.  1.
     -623    1    1    2    0    0 -0.10934317803E-03  0.24873048642E-03  0.32842293264E-04  0.17130000000E+03  0.17130000000E+03 0.  1.
      622    1    1    2    0    0 -0.90095577874E-03 -0.25372268148E-02  0.38477110544E+01  0.38477225221E+01  0.90000000000E-02 0.  1.
</event>
<event>
 5   0  0.6135700E+09  0.9118800E+02  0.7818608E-02  0.1180000E+00
       11   -1    0    0    0    0  0.00000000000E+00  0.00000000000E+00  0.39999999673E+01  0.40000000000E+01  0.51109989000E-03 0.  1.
     -623   -1    0    0    0    0  0.00000000000E+00  0.00000000000E+00  0.12525980253E-10  0.17130000000E+03  0.17130000000E+03 0.  1.
       11    1    1    2    0    0  0.47377319539E-04 -0.18932173060E-02  0.32372352841E-01  0.32431727797E-01  0.51109989000E-03 0. -1.
     -623    1    1    2    0    0  0.62526528724E-05 -0.30515368801E-03  0.70159786245E-04  0.17130000000E+03  0.17130000000E+03 0.  1.
      622    1    1    2    0    0 -0.53629972414E-04  0.21983709941E-02  0.39675574565E+01  0.39675682737E+01  0.90000000000E-02 0.  1.
</event>
<event>
 5   0  0.6135700E+09  0.9118800E+02  0.7818608E-02  0.1180000E+00
       11   -1    0    0    0    0  0.00000000000E+00  0.00000000000E+00  0.39999999673E+01  0.40000000000E+01  0.51109989000E-03 0. -1.
     -623   -1    0    0    0    0  0.00000000000E+00  0.00000000000E+00  0.12525980253E-10  0.17130000000E+03  0.17130000000E+03 0. -1.
       11    1    1    2    0    0  0.13530178501E-01  0.96614348784E-02  0.11563889526E+01  0.11565085732E+01  0.51109989000E-03 0. -1.
     -623    1    1    2    0    0 -0.32525909517E-02  0.33813252119E-02  0.18238268080E-03  0.17130000006E+03  0.17130000000E+03 0. -1.
      622    1    1    2    0    0 -0.10277587549E-01 -0.13042760090E-01  0.28434286321E+01  0.28434913625E+01  0.90000000000E-02 0. -1.
</event>
<event>
 5   0  0.6135700E+09  0.9118800E+02  0.7818608E-02  0.1180000E+00
       11   -1    0    0    0    0  0.00000000000E+00  0.00000000000E+00  0.39999999673E+01  0.40000000000E+01  0.51109989000E-03 0. -1.
     -623   -1    0    0    0    0  0.00000000000E+00  0.00000000000E+00  0.12525980253E-10  0.17130000000E+03  0.17130000000E+03 0.  1.
       11    1    1    2    0    0  0.18877618850E-03  0.29754255873E-02  0.24910704982E+00  0.24912541477E+00  0.51109989000E-03 0. -1.
     -623    1    1    2    0    0 -0.58062683520E-03  0.30899459302E-03  0.30589535851E-04  0.17130000000E+03  0.17130000000E+03 0.  1.
      622    1    1    2    0    0  0.39185064670E-03 -0.32844201803E-02  0.37508623280E+01  0.37508745840E+01  0.90000000000E-02 0. -1.
</event>
<event>
 5   0  0.6135700E+09  0.9118800E+02  0.7818608E-02  0.1180000E+00
       11   -1    0    0    0    0  0.00000000000E+00  0.00000000000E+00  0.39999999673E+01  0.40000000000E+01  0.51109989000E-03 0. -1.
     -623   -1    0    0    0    0  0.00000000000E+00  0.00000000000E+00  0.12525980253E-10  0.17130000000E+03  0.17130000000E+03 0.  1.
       11    1    1    2    0    0 -0.14855846652E-02  0.18190965843E-02  0.11099625917E+01  0.11099651941E+01  0.51109989000E-03 0. -1.
     -623    1    1    2    0    0  0.23661708617E-03  0.17684254899E-02  0.19089392917E-04  0.17130000001E+03  0.17130000000E+03 0.  1.
      622    1    1    2    0    0  0.12489675785E-02 -0.35875220779E-02  0.28900182947E+01  0.28900348049E+01  0.90000000000E-02 0.  0.
</event>
<event>
 5   0  0.6135700E+09  0.9118800E+02  0.7818608E-02  0.1180000E+00
       11   -1    0    0    0    0  0.00000000000E+00  0.00000000000E+00  0.39999999673E+01  0.40000000000E+01  0.51109989000E-03 0.  1.
     -623   -1    0    0    0    0  0.00000000000E+00  0.00000000000E+00  0.12525980253E-10  0.17130000000E+03  0.17130000000E+03 0.  1.
       11    1    1    2    0    0  0.80045873984E-03  0.66756658041E-03  0.14606082243E-01  0.14652141172E-01  0.51109989000E-03 0.  1.
     -623    1    1    2    0    0 -0.95013898952E-03 -0.82200847110E-03  0.56198946132E-04  0.17130000000E+03  0.17130000000E+03 0.  1.
      622    1    1    2    0    0  0.14968025012E-03  0.15444189106E-03  0.39853376880E+01  0.39853478560E+01  0.90000000000E-02 0.  1.
</event>
<event>
 5   0  0.6135700E+09  0.9118800E+02  0.7818608E-02  0.1180000E+00
       11   -1    0    0    0    0  0.00000000000E+00  0.00000000000E+00  0.39999999673E+01  0.40000000000E+01  0.51109989000E-03 0.  1.
     -623   -1    0    0    0    0  0.00000000000E+00  0.00000000000E+00  0.12525980253E-10  0.17130000000E+03  0.17130000000E+03 0. -1.
       11    1    1    2    0    0 -0.50713131781E-03  0.29681317538E-03  0.10445480538E-01  0.10474472158E-01  0.51109989000E-03 0.  1.
     -623    1    1    2    0    0  0.61480676754E-04  0.92380193908E-04  0.39154491431E-04  0.17130000000E+03  0.17130000000E+03 0. -1.
      622    1    1    2    0    0  0.44565064101E-03 -0.38919336936E-03  0.39895153353E+01  0.39895255308E+01  0.90000000000E-02 0.  1.
</event>
<event>
 5   0  0.6135700E+09  0.9118800E+02  0.7818608E-02  0.1180000E+00
       11   -1    0    0    0    0  0.00000000000E+00  0.00000000000E+00  0.39999999673E+01  0.40000000000E+01  0.51109989000E-03 0. -1.
     -623   -1    0    0    0    0  0.00000000000E+00  0.00000000000E+00  0.12525980253E-10  0.17130000000E+03  0.17130000000E+03 0. -1.
       11    1    1    2    0    0 -0.11637416503E-02  0.32156119419E-02  0.58809268510E+00  0.58810284980E+00  0.51109989000E-03 0. -1.
     -623    1    1    2    0    0  0.22798720430E-03 -0.83912748603E-03  0.22960488403E-04  0.17130000000E+03  0.17130000000E+03 0. -1.
      622    1    1    2    0    0  0.93575444601E-03 -0.23764844559E-02  0.34118843218E+01  0.34118971480E+01  0.90000000000E-02 0.  0.
</event>
<event>
 5   0  0.6135700E+09  0.9118800E+02  0.7818608E-02  0.1180000E+00
       11   -1    0    0    0    0  0.00000000000E+00  0.00000000000E+00  0.39999999673E+01  0.40000000000E+01  0.51109989000E-03 0.  1.
     -623   -1    0    0    0    0  0.00000000000E+00  0.00000000000E+00  0.12525980253E-10  0.17130000000E+03  0.17130000000E+03 0. -1.
       11    1    1    2    0    0  0.23946771222E-03 -0.13742876269E-03  0.10439350834E+00  0.10439512459E+00  0.51109989000E-03 0.  1.
     -623    1    1    2    0    0 -0.12754118293E-03 -0.13321836774E-03  0.11991059568E-04  0.17130000000E+03  0.17130000000E+03 0. -1.
      622    1    1    2    0    0 -0.11192652929E-03  0.27064713043E-03  0.38955944680E+01  0.38956048753E+01  0.90000000000E-02 0.  1.
</event>
<event>
 5   0  0.6135700E+09  0.9118800E+02  0.7818608E-02  0.1180000E+00
       11   -1    0    0    0    0  0.00000000000E+00  0.00000000000E+00  0.39999999673E+01  0.40000000000E+01  0.51109989000E-03 0. -1.
     -623   -1    0    0    0    0  0.00000000000E+00  0.00000000000E+00  0.12525980253E-10  0.17130000000E+03  0.17130000000E+03 0. -1.
       11    1    1    2    0    0 -0.21387290121E-03  0.45617487141E-03  0.22410703798E-01  0.22422192242E-01  0.51109989000E-03 0. -1.
     -623    1    1    2    0    0 -0.19200327246E-04 -0.34778839182E-04  0.21667049917E-04  0.17130000000E+03  0.17130000000E+03 0. -1.
      622    1    1    2    0    0  0.23307322851E-03 -0.42139603213E-03  0.39775676079E+01  0.39775778191E+01  0.90000000000E-02 0. -1.
</event>
<event>
 5   0  0.6135700E+09  0.9118800E+02  0.7818608E-02  0.1180000E+00
       11   -1    0    0    0    0  0.00000000000E+00  0.00000000000E+00  0.39999999673E+01  0.40000000000E+01  0.51109989000E-03 0. -1.
     -623   -1    0    0    0    0  0.00000000000E+00  0.00000000000E+00  0.12525980253E-10  0.17130000000E+03  0.17130000000E+03 0. -1.
       11    1    1    2    0    0 -0.92054855161E-04 -0.10624181682E-02  0.15137341307E-01  0.15183462418E-01  0.51109989000E-03 0. -1.
     -623    1    1    2    0    0 -0.58335235107E-03  0.82665306550E-03  0.56319273972E-04  0.17130000000E+03  0.17130000000E+03 0. -1.
      622    1    1    2    0    0  0.67540720623E-03  0.23576510268E-03  0.39848063068E+01  0.39848165346E+01  0.90000000000E-02 0. -1.
</event>
<event>
 5   0  0.6135700E+09  0.9118800E+02  0.7818608E-02  0.1180000E+00
       11   -1    0    0    0    0  0.00000000000E+00  0.00000000000E+00  0.39999999673E+01  0.40000000000E+01  0.51109989000E-03 0. -1.
     -623   -1    0    0    0    0  0.00000000000E+00  0.00000000000E+00  0.12525980253E-10  0.17130000000E+03  0.17130000000E+03 0.  1.
       11    1    1    2    0    0 -0.23191421791E-03 -0.40491899505E-04  0.74473875663E-01  0.74476001512E-01  0.51109989000E-03 0. -1.
     -623    1    1    2    0    0 -0.34438956944E-04  0.26098657433E-04  0.12419385112E-04  0.17130000000E+03  0.17130000000E+03 0.  1.
      622    1    1    2    0    0  0.26635317485E-03  0.14393242073E-04  0.39255136723E+01  0.39255239985E+01  0.90000000000E-02 0. -1.
</event>
<event>
 5   0  0.6135700E+09  0.9118800E+02  0.7818608E-02  0.1180000E+00
       11   -1    0    0    0    0  0.00000000000E+00  0.00000000000E+00  0.39999999673E+01  0.40000000000E+01  0.51109989000E-03 0.  1.
     -623   -1    0    0    0    0  0.00000000000E+00  0.00000000000E+00  0.12525980253E-10  0.17130000000E+03  0.17130000000E+03 0. -1.
       11    1    1    2    0    0  0.37300224138E-03 -0.18567261845E-02  0.15853590284E+00  0.15854803775E+00  0.51109989000E-03 0.  1.
     -623    1    1    2    0    0  0.28076249054E-03  0.43142856570E-03  0.22965997061E-04  0.17130000000E+03  0.17130000000E+03 0. -1.
      622    1    1    2    0    0 -0.65376473277E-03  0.14252976175E-02  0.38414411106E+01  0.38414519735E+01  0.90000000000E-02 0.  1.
</event>
<event>
 5   0  0.6135700E+09  0.9118800E+02  0.7818608E-02  0.1180000E+00
       11   -1    0    0    0    0  0.00000000000E+00  0.00000000000E+00  0.39999999673E+01  0.40000000000E+01  0.51109989000E-03 0.  1.
     -623   -1    0    0    0    0  0.00000000000E+00  0.00000000000E+00  0.12525980253E-10  0.17130000000E+03  0.17130000000E+03 0.  1.
       11    1    1    2    0    0  0.11092356479E-02 -0.10173832899E-02  0.12054295740E+00  0.12055343742E+00  0.51109989000E-03 0.  1.
     -623    1    1    2    0    0  0.51893473737E-04  0.19929341192E-03  0.21147178471E-04  0.17130000000E+03  0.17130000000E+03 0.  1.
      622    1    1    2    0    0 -0.11611291218E-02  0.81808987743E-03  0.38794358737E+01  0.38794465733E+01  0.90000000000E-02 0.  1.
</event>
<event>
 5   0  0.6135700E+09  0.9118800E+02  0.7818608E-02  0.1180000E+00
       11   -1    0    0    0    0  0.00000000000E+00  0.00000000000E+00  0.39999999673E+01  0.40000000000E+01  0.51109989000E-03 0.  1.
     -623   -1    0    0    0    0  0.00000000000E+00  0.00000000000E+00  0.12525980253E-10  0.17130000000E+03  0.17130000000E+03 0.  1.
       11    1    1    2    0    0 -0.15886892587E-02 -0.33559196497E-02  0.28445779241E+00  0.28448248279E+00  0.51109989000E-03 0.  1.
     -623    1    1    2    0    0 -0.28362736636E-02 -0.53920243547E-05  0.39736861483E-04  0.17130000002E+03  0.17130000000E+03 0.  1.
      622    1    1    2    0    0  0.44249629223E-02  0.33613116740E-02  0.37155024381E+01  0.37155174937E+01  0.90000000000E-02 0.  1.
</event>
<event>
 5   0  0.6135700E+09  0.9118800E+02  0.7818608E-02  0.1180000E+00
       11   -1    0    0    0    0  0.00000000000E+00  0.00000000000E+00  0.39999999673E+01  0.40000000000E+01  0.51109989000E-03 0. -1.
     -623   -1    0    0    0    0  0.00000000000E+00  0.00000000000E+00  0.12525980253E-10  0.17130000000E+03  0.17130000000E+03 0. -1.
       11    1    1    2    0    0  0.36514462283E-03  0.13109203763E-03  0.42056075307E-01  0.42060970109E-01  0.51109989000E-03 0. -1.
     -623    1    1    2    0    0 -0.60084001993E-03  0.23203573606E-03  0.15119661458E-04  0.17130000000E+03  0.17130000000E+03 0. -1.
      622    1    1    2    0    0  0.23569539710E-03 -0.36312777369E-03  0.39579287724E+01  0.39579390287E+01  0.90000000000E-02 0. -1.
</event>
<event>
 5   0  0.6135700E+09  0.9118800E+02  0.7818608E-02  0.1180000E+00
       11   -1    0    0    0    0  0.00000000000E+00  0.00000000000E+00  0.39999999673E+01  0.40000000000E+01  0.51109989000E-03 0. -1.
     -623   -1    0    0    0    0  0.00000000000E+00  0.00000000000E+00  0.12525980253E-10  0.17130000000E+03  0.17130000000E+03 0. -1.
       11    1    1    2    0    0  0.44627922505E-02 -0.99805619794E-02  0.11263567057E+01  0.11264098800E+01  0.51109989000E-03 0. -1.
     -623    1    1    2    0    0 -0.24164763033E-02 -0.75358664974E-03  0.88031528107E-04  0.17130000002E+03  0.17130000000E+03 0. -1.
      622    1    1    2    0    0 -0.20463159455E-02  0.10734148630E-01  0.28735552330E+01  0.28735901041E+01  0.90000000000E-02 0. -1.
</event>
<event>
 5   0  0.6135700E+09  0.9118800E+02  0.7818608E-02  0.1180000E+00
       11   -1    0    0    0    0  0.00000000000E+00  0.00000000000E+00  0.39999999673E+01  0.40000000000E+01  0.51109989000E-03 0.  1.
     -623   -1    0    0    0    0  0.00000000000E+00  0.00000000000E+00  0.12525980253E-10  0.17130000000E+03  0.17130000000E+03 0. -1.
       11    1    1    2    0    0 -0.34141429660E-03  0.95337986848E-03  0.46220335444E-01  0.46234252754E-01  0.51109989000E-03 0.  1.
     -623    1    1    2    0    0 -0.37416955951E-05 -0.75048480330E-04  0.24240726832E-04  0.17130000000E+03  0.17130000000E+03 0. -1.
      622    1    1    2    0    0  0.34515599219E-03 -0.87833138815E-03  0.39537553912E+01  0.39537657472E+01  0.90000000000E-02 0.  1.
</event>
<event>
 5   0  0.6135700E+09  0.9118800E+02  0.7818608E-02  0.1180000E+00
       11   -1    0    0    0    0  0.00000000000E+00  0.00000000000E+00  0.39999999673E+01  0.40000000000E+01  0.51109989000E-03 0.  1.
     -623   -1    0    0    0    0  0.00000000000E+00  0.00000000000E+00  0.12525980253E-10  0.17130000000E+03  0.17130000000E+03 0. -1.
       11    1    1    2    0    0 -0.17366130825E-03 -0.21932597815E-03  0.89146019235E-02  0.89336225959E-02  0.51109989000E-03 0. -1.
     -623    1    1    2    0    0  0.66339549787E-02 -0.15514750448E-02  0.34892660430E-04  0.17130000014E+03  0.17130000000E+03 0. -1.
      622    1    1    2    0    0 -0.64602936963E-02  0.17708010290E-02  0.39910504884E+01  0.39910662575E+01  0.90000000000E-02 0.  1.
</event>
<event>
 5   0  0.6135700E+09  0.9118800E+02  0.7818608E-02  0.1180000E+00
       11   -1    0    0    0    0  0.00000000000E+00  0.00000000000E+00  0.39999999673E+01  0.40000000000E+01  0.51109989000E-03 0. -1.
     -623   -1    0    0    0    0  0.00000000000E+00  0.00000000000E+00  0.12525980253E-10  0.17130000000E+03  0.17130000000E+03 0. -1.
       11    1    1    2    0    0  0.66389272806E-02 -0.63039418030E-02  0.11246608575E+01  0.11246982354E+01  0.51109989000E-03 0. -1.
     -623    1    1    2    0    0  0.33249009736E-03  0.83671823573E-02  0.60827154786E-04  0.17130000020E+03  0.17130000000E+03 0. -1.
      622    1    1    2    0    0 -0.69714173781E-02 -0.20632405557E-02  0.28752782834E+01  0.28753015606E+01  0.90000000000E-02 0. -1.
</event>
<event>
 5   0  0.6135700E+09  0.9118800E+02  0.7818608E-02  0.1180000E+00
       11   -1    0    0    0    0  0.00000000000E+00  0.00000000000E+00  0.39999999673E+01  0.40000000000E+01  0.51109989000E-03 0.  1.
     -623   -1    0    0    0    0  0.00000000000E+00  0.00000000000E+00  0.12525980253E-10  0.17130000000E+03  0.17130000000E+03 0. -1.
       11    1    1    2    0    0  0.50313005328E-02  0.24898771492E-02  0.78607330559E+00  0.78609351636E+00  0.51109989000E-03 0.  1.
     -623    1    1    2    0    0  0.14589514684E-03 -0.88134211146E-03  0.37354423117E-04  0.17130000000E+03  0.17130000000E+03 0. -1.
      622    1    1    2    0    0 -0.51771956796E-02 -0.16085350377E-02  0.32138893073E+01  0.32139064813E+01  0.90000000000E-02 0.  1.
</event>
<event>
 5   0  0.6135700E+09  0.9118800E+02  0.7818608E-02  0.1180000E+00
       11   -1    0    0    0    0  0.00000000000E+00  0.00000000000E+00  0.39999999673E+01  0.40000000000E+01  0.51109989000E-03 0. -1.
     -623   -1    0    0    0    0  0.00000000000E+00  0.00000000000E+00  0.12525980253E-10  0.17130000000E+03  0.17130000000E+03 0. -1.
       11    1    1    2    0    0  0.26569829820E-02 -0.11253626798E-03  0.52482313479E+00  0.52483012134E+00  0.51109989000E-03 0. -1.
     -623    1    1    2    0    0 -0.57555759981E-03  0.11524454022E-02  0.19391792435E-04  0.17130000000E+03  0.17130000000E+03 0. -1.
      622    1    1    2    0    0 -0.20814253803E-02 -0.10399091382E-02  0.34751574543E+01  0.34751698873E+01  0.90000000000E-02 0. -1.
</event>
<event>
 5   0  0.6135700E+09  0.9118800E+02  0.7818608E-02  0.1180000E+00
       11   -1    0    0    0    0  0.00000000000E+00  0.00000000000E+00  0.39999999673E+01  0.40000000000E+01  0.51109989000E-03 0. -1.
     -623   -1    0    0    0    0  0.00000000000E+00  0.00000000000E+00  0.12525980253E-10  0.17130000000E+03  0.17130000000E+03 0. -1.
       11    1    1    2    0    0 -0.13998421513E-02 -0.72424171862E-03  0.18595284922E+00  0.18596023080E+00  0.51109989000E-03 0. -1.
     -623    1    1    2    0    0 -0.26082810744E-04 -0.14710341089E-03  0.18333769178E-04  0.17130000000E+03  0.17130000000E+03 0. -1.
      622    1    1    2    0    0  0.14259249620E-02  0.87134512926E-03  0.38140287778E+01  0.38140397625E+01  0.90000000000E-02 0. -1.
</event>
<event>
 5   0  0.6135700E+09  0.9118800E+02  0.7818608E-02  0.1180000E+00
       11   -1    0    0    0    0  0.00000000000E+00  0.00000000000E+00  0.39999999673E+01  0.40000000000E+01  0.51109989000E-03 0.  1.
     -623   -1    0    0    0    0  0.00000000000E+00  0.00000000000E+00  0.12525980253E-10  0.17130000000E+03  0.17130000000E+03 0.  1.
       11    1    1    2    0    0  0.12121553380E-02  0.61523368498E-03  0.99472772592E-01  0.99483373201E-01  0.51109989000E-03 0.  1.
     -623    1    1    2    0    0  0.56844717365E-05 -0.67601849367E-04  0.21179802045E-04  0.17130000000E+03  0.17130000000E+03 0.  1.
      622    1    1    2    0    0 -0.12178398097E-02 -0.54763183561E-03  0.39005060150E+01  0.39005166268E+01  0.90000000000E-02 0.  1.
</event>
<event>
 5   0  0.6135700E+09  0.9118800E+02  0.7818608E-02  0.1180000E+00
       11   -1    0    0    0    0  0.00000000000E+00  0.00000000000E+00  0.39999999673E+01  0.40000000000E+01  0.51109989000E-03 0.  1.
     -623   -1    0    0    0    0  0.00000000000E+00  0.00000000000E+00  0.12525980253E-10  0.17130000000E+03  0.17130000000E+03 0.  1.
       11    1    1    2    0    0  0.15536879533E-03  0.12409815863E-02  0.14833930298E-01  0.14895331011E-01  0.51109989000E-03 0.  1.
     -623    1    1    2    0    0 -0.95448508759E-03 -0.62643134925E-04  0.71787948078E-04  0.17130000000E+03  0.17130000000E+03 0.  1.
      622    1    1    2    0    0  0.79911629273E-03 -0.11783384514E-02  0.39850942511E+01  0.39851046683E+01  0.90000000000E-02 0.  1.
</event>
<event>
 5   0  0.6135700E+09  0.9118800E+02  0.7818608E-02  0.1180000E+00
       11   -1    0    0    0    0  0.00000000000E+00  0.00000000000E+00  0.39999999673E+01  0.40000000000E+01  0.51109989000E-03 0.  1.
     -623   -1    0    0    0    0  0.00000000000E+00  0.00000000000E+00  0.12525980253E-10  0.17130000000E+03  0.17130000000E+03 0.  1.
       11    1    1    2    0    0  0.16045561442E-02  0.72329325856E-04  0.11274678959E+00  0.11275938816E+00  0.51109989000E-03 0.  1.
     -623    1    1    2    0    0 -0.91241156201E-03  0.86091842275E-03  0.23162886330E-04  0.17130000000E+03  0.17130000000E+03 0.  1.
      622    1    1    2    0    0 -0.69214457898E-03 -0.93324775166E-03  0.38872300291E+01  0.38872406215E+01  0.90000000000E-02 0.  1.
</event>
<event>
 5   0  0.6135700E+09  0.9118800E+02  0.7818608E-02  0.1180000E+00
       11   -1    0    0    0    0  0.00000000000E+00  0.00000000000E+00  0.39999999673E+01  0.40000000000E+01  0.51109989000E-03 0. -1.
     -623   -1    0    0    0    0  0.00000000000E+00  0.00000000000E+00  0.12525980253E-10  0.17130000000E+03  0.17130000000E+03 0. -1.
       11    1    1    2    0    0  0.64433738566E-04 -0.38902069155E-03  0.54391451714E-02  0.54773179657E-02  0.51109989000E-03 0. -1.
     -623    1    1    2    0    0 -0.35285876149E-03 -0.90667689540E-04  0.48318659801E-04  0.17130000000E+03  0.17130000000E+03 0. -1.
      622    1    1    2    0    0  0.28842502339E-03  0.47968838121E-03  0.39945125088E+01  0.39945226869E+01  0.90000000000E-02 0. -1.
</event>
<event>
 5   0  0.6135700E+09  0.9118800E+02  0.7818608E-02  0.1180000E+00
       11   -1    0    0    0    0  0.00000000000E+00  0.00000000000E+00  0.39999999673E+01  0.40000000000E+01  0.51109989000E-03 0. -1.
     -623   -1    0    0    0    0  0.00000000000E+00  0.00000000000E+00  0.12525980253E-10  0.17130000000E+03  0.17130000000E+03 0. -1.
       11    1    1    2    0    0  0.58005734328E-02  0.76901082731E-03  0.33433430533E+00  0.33438589529E+00  0.51109989000E-03 0. -1.
     -623    1    1    2    0    0 -0.68281169833E-02  0.54947789098E-02  0.68326010852E-04  0.17130000022E+03  0.17130000000E+03 0. -1.
      622    1    1    2    0    0  0.10275435505E-02 -0.62637897371E-02  0.36655973360E+01  0.36656138805E+01  0.90000000000E-02 0. -1.
</event>
<event>
 5   0  0.6135700E+09  0.9118800E+02  0.7818608E-02  0.1180000E+00
       11   -1    0    0    0    0  0.00000000000E+00  0.00000000000E+00  0.39999999673E+01  0.40000000000E+01  0.51109989000E-03 0.  1.
     -623   -1    0    0    0    0  0.00000000000E+00  0.00000000000E+00  0.12525980253E-10  0.17130000000E+03  0.17130000000E+03 0. -1.
       11    1    1    2    0    0 -0.34962969146E-02 -0.12556423222E-02  0.21326522151E+00  0.21329818719E+00  0.51109989000E-03 0.  1.
     -623    1    1    2    0    0 -0.17411332467E-03 -0.24909217717E-05  0.45616331718E-04  0.17130000000E+03  0.17130000000E+03 0. -1.
      622    1    1    2    0    0  0.36704102392E-02  0.12581332440E-02  0.37866891275E+01  0.37867018107E+01  0.90000000000E-02 0.  1.
</event>
<event>
 5   0  0.6135700E+09  0.9118800E+02  0.7818608E-02  0.1180000E+00
       11   -1    0    0    0    0  0.00000000000E+00  0.00000000000E+00  0.39999999673E+01  0.40000000000E+01  0.51109989000E-03 0. -1.
     -623   -1    0    0    0    0  0.00000000000E+00  0.00000000000E+00  0.12525980253E-10  0.17130000000E+03  0.17130000000E+03 0. -1.
       11    1    1    2    0    0 -0.21711448122E-02 -0.43662692318E-03  0.78475254126E+00  0.78475583256E+00  0.51109989000E-03 0. -1.
     -623    1    1    2    0    0  0.38539462102E-04 -0.45221898757E-04  0.16598313278E-04  0.17130000000E+03  0.17130000000E+03 0. -1.
      622    1    1    2    0    0  0.21326053499E-02  0.48184882220E-03  0.32152308509E+01  0.32152441905E+01  0.90000000000E-02 0. -1.
</event>
<event>
 5   0  0.6135700E+09  0.9118800E+02  0.7818608E-02  0.1180000E+00
       11   -1    0    0    0    0  0.00000000000E+00  0.00000000000E+00  0.39999999673E+01  0.40000000000E+01  0.51109989000E-03 0. -1.
     -623   -1    0    0    0    0  0.00000000000E+00  0.00000000000E+00  0.12525980253E-10  0.17130000000E+03  0.17130000000E+03 0. -1.
       11    1    1    2    0    0 -0.32000145818E-03 -0.92026576257E-03  0.18494224850E-01  0.18526922684E-01  0.51109989000E-03 0. -1.
     -623    1    1    2    0    0  0.19327796514E-03 -0.31685391129E-04  0.42953259178E-04  0.17130000000E+03  0.17130000000E+03 0. -1.
      622    1    1    2    0    0  0.12672349304E-03  0.95195115370E-03  0.39814627893E+01  0.39814730772E+01  0.90000000000E-02 0. -1.
</event>
<event>
 5   0  0.6135700E+09  0.9118800E+02  0.7818608E-02  0.1180000E+00
       11   -1    0    0    0    0  0.00000000000E+00  0.00000000000E+00  0.39999999673E+01  0.40000000000E+01  0.51109989000E-03 0. -1.
     -623   -1    0    0    0    0  0.00000000000E+00  0.00000000000E+00  0.12525980253E-10  0.17130000000E+03  0.17130000000E+03 0. -1.
       11    1    1    2    0    0 -0.13035538278E-02 -0.79783460395E-04  0.26028803828E-01  0.26066558457E-01  0.51109989000E-03 0. -1.
     -623    1    1    2    0    0 -0.47746509306E-03  0.24641083908E-03  0.48316863885E-04  0.17130000000E+03  0.17130000000E+03 0. -1.
      622    1    1    2    0    0  0.17810189222E-02 -0.16662737937E-03  0.39739228578E+01  0.39739334519E+01  0.90000000000E-02 0. -1.
</event>
<event>
 5   0  0.6135700E+09  0.9118800E+02  0.7818608E-02  0.1180000E+00
       11   -1    0    0    0    0  0.00000000000E+00  0.00000000000E+00  0.39999999673E+01  0.40000000000E+01  0.51109989000E-03 0. -1.
     -623   -1    0    0    0    0  0.00000000000E+00  0.00000000000E+00  0.12525980253E-10  0.17130000000E+03  0.17130000000E+03 0.  1.
       11    1    1    2    0    0  0.70699021596E-03  0.12011633078E-02  0.43862005758E+00  0.43862256983E+00  0.51109989000E-03 0. -1.
     -623    1    1    2    0    0 -0.85494226697E-03  0.10296553517E-02  0.14558618897E-04  0.17130000001E+03  0.17130000000E+03 0.  1.
      622    1    1    2    0    0  0.14795204938E-03 -0.22308186575E-02  0.35613653435E+01  0.35613774173E+01  0.90000000000E-02 0. -1.
</event>
<event>
 5   0  0.6135700E+09  0.9118800E+02  0.7818608E-02  0.1180000E+00
       11   -1    0    0    0    0  0.00000000000E+00  0.00000000000E+00  0.39999999673E+01  0.40000000000E+01  0.51109989000E-03 0. -1.
     -623   -1    0    0    0    0  0.00000000000E+00  0.00000000000E+00  0.12525980253E-10  0.17130000000E+03  0.17130000000E+03 0. -1.
       11    1    1    2    0    0  0.55122390923E-03  0.16881667228E-03  0.11507429859E+00  0.11507687763E+00  0.51109989000E-03 0. -1.
     -623    1    1    2    0    0  0.45131751920E-04 -0.33066039916E-04  0.13019479996E-04  0.17130000000E+03  0.17130000000E+03 0. -1.
      622    1    1    2    0    0 -0.59635566115E-03 -0.13575063236E-03  0.38849126493E+01  0.38849231224E+01  0.90000000000E-02 0. -1.
</event>
<event>
 5   0  0.6135700E+09  0.9118800E+02  0.7818608E-02  0.1180000E+00
       11   -1    0    0    0    0  0.00000000000E+00  0.00000000000E+00  0.39999999673E+01  0.40000000000E+01  0.51109989000E-03 0. -1.
     -623   -1    0    0    0    0  0.00000000000E+00  0.00000000000E+00  0.12525980253E-10  0.17130000000E+03  0.17130000000E+03 0.  1.
       11    1    1    2    0    0  0.90035887116E-02  0.68339732695E-02  0.18057631498E+00  0.18093046883E+00  0.51109989000E-03 0. -1.
     -623    1    1    2    0    0 -0.29121828921E-02 -0.10440938004E-02  0.37400103637E-03  0.17130000003E+03  0.17130000000E+03 0.  1.
      622    1    1    2    0    0 -0.60914058195E-02 -0.57898794691E-02  0.38190496513E+01  0.38190695028E+01  0.90000000000E-02 0. -1.
</event>
<event>
 5   0  0.6135700E+09  0.9118800E+02  0.7818608E-02  0.1180000E+00
       11   -1    0    0    0    0  0.00000000000E+00  0.00000000000E+00  0.39999999673E+01  0.40000000000E+01  0.51109989000E-03 0.  1.
     -623   -1    0    0    0    0  0.00000000000E+00  0.00000000000E+00  0.12525980253E-10  0.17130000000E+03  0.17130000000E+03 0. -1.
       11    1    1    2    0    0 -0.56816308952E-03  0.14889148103E-02  0.27075876982E-01  0.27127550801E-01  0.51109989000E-03 0.  1.
     -623    1    1    2    0    0 -0.23455960032E-03 -0.20520658812E-02  0.61968799028E-04  0.17130000001E+03  0.17130000000E+03 0. -1.
      622    1    1    2    0    0  0.80272268984E-03  0.56315107082E-03  0.39728621216E+01  0.39728724367E+01  0.90000000000E-02 0.  1.
</event>
<event>
 5   0  0.6135700E+09  0.9118800E+02  0.7818608E-02  0.1180000E+00
       11   -1    0    0    0    0  0.00000000000E+00  0.00000000000E+00  0.39999999673E+01  0.40000000000E+01  0.51109989000E-03 0.  1.
     -623   -1    0    0    0    0  0.00000000000E+00  0.00000000000E+00  0.12525980253E-10  0.17130000000E+03  0.17130000000E+03 0. -1.
       11    1    1    2    0    0  0.68826702728E-03 -0.55592747188E-03  0.30682333351E-01  0.30699341487E-01  0.51109989000E-03 0.  1.
     -623    1    1    2    0    0 -0.79100341945E-03  0.46806737655E-03  0.27183587713E-04  0.17130000000E+03  0.17130000000E+03 0. -1.
      622    1    1    2    0    0  0.10273639217E-03  0.87860095335E-04  0.39692904504E+01  0.39693006560E+01  0.90000000000E-02 0.  1.
</event>
<event>
 5   0  0.6135700E+09  0.9118800E+02  0.7818608E-02  0.1180000E+00
       11   -1    0    0    0    0  0.00000000000E+00  0.00000000000E+00  0.39999999673E+01  0.40000000000E+01  0.51109989000E-03 0.  1.
     -623   -1    0    0    0    0  0.00000000000E+00  0.00000000000E+00  0.12525980253E-10  0.17130000000E+03  0.17130000000E+03 0.  1.
       11    1    1    2    0    0  0.48761511896E-03  0.13559124023E-03  0.31730457531E-01  0.31738609165E-01  0.51109989000E-03 0. -1.
     -623    1    1    2    0    0 -0.21499369341E-03 -0.14767918929E-03  0.18334570210E-04  0.17130000000E+03  0.17130000000E+03 0.  1.
      622    1    1    2    0    0 -0.27262142507E-03  0.12087949382E-04  0.39682511841E+01  0.39682613995E+01  0.90000000000E-02 0.  1.
</event>
<event>
 5   0  0.6135700E+09  0.9118800E+02  0.7818608E-02  0.1180000E+00
       11   -1    0    0    0    0  0.00000000000E+00  0.00000000000E+00  0.39999999673E+01  0.40000000000E+01  0.51109989000E-03 0.  1.
     -623   -1    0    0    0    0  0.00000000000E+00  0.00000000000E+00  0.12525980253E-10  0.17130000000E+03  0.17130000000E+03 0. -1.
       11    1    1    2    0    0  0.84946544539E-02  0.53007539452E-02  0.10640196234E+01  0.10640668575E+01  0.51109989000E-03 0.  1.
     -623    1    1    2    0    0  0.13475312200E-03 -0.48467016412E-03  0.77629100348E-04  0.17130000000E+03  0.17130000000E+03 0. -1.
      622    1    1    2    0    0 -0.86294075758E-02 -0.48160837813E-02  0.29359027138E+01  0.29359331406E+01  0.90000000000E-02 0. -1.
</event>
<event>
 5   0  0.6135700E+09  0.9118800E+02  0.7818608E-02  0.1180000E+00
       11   -1    0    0    0    0  0.00000000000E+00  0.00000000000E+00  0.39999999673E+01  0.40000000000E+01  0.51109989000E-03 0.  1.
     -623   -1    0    0    0    0  0.00000000000E+00  0.00000000000E+00  0.12525980253E-10  0.17130000000E+03  0.17130000000E+03 0. -1.
       11    1    1    2    0    0  0.64724574077E-03  0.33828895888E-02  0.11437312690E+01  0.11437365692E+01  0.51109989000E-03 0.  1.
     -623    1    1    2    0    0 -0.15566125628E-02 -0.96422434751E-03  0.20625591251E-04  0.17130000001E+03  0.17130000000E+03 0. -1.
      622    1    1    2    0    0  0.90936682206E-03 -0.24186652413E-02  0.28562480728E+01  0.28562634210E+01  0.90000000000E-02 0.  1.
</event>
<event>
 5   0  0.6135700E+09  0.9118800E+02  0.7818608E-02  0.1180000E+00
       11   -1    0    0    0    0  0.00000000000E+00  0.00000000000E+00  0.39999999673E+01  0.40000000000E+01  0.51109989000E-03 0. -1.
     -623   -1    0    0    0    0  0.00000000000E+00  0.00000000000E+00  0.12525980253E-10  0.17130000000E+03  0.17130000000E+03 0. -1.
       11    1    1    2    0    0 -0.61694157332E-03  0.25754380954E-03  0.49970707739E+00  0.49970778597E+00  0.51109989000E-03 0. -1.
     -623    1    1    2    0    0 -0.17204787000E-04 -0.57309200154E-04  0.12309605964E-04  0.17130000000E+03  0.17130000000E+03 0. -1.
      622    1    1    2    0    0  0.63414636032E-03 -0.20023460939E-03  0.35002805804E+01  0.35002922140E+01  0.90000000000E-02 0. -1.
</event>
<event>
 5   0  0.6135700E+09  0.9118800E+02  0.7818608E-02  0.1180000E+00
       11   -1    0    0    0    0  0.00000000000E+00  0.00000000000E+00  0.39999999673E+01  0.40000000000E+01  0.51109989000E-03 0.  1.
     -623   -1    0    0    0    0  0.00000000000E+00  0.00000000000E+00  0.12525980253E-10  0.17130000000E+03  0.17130000000E+03 0.  1.
       11    1    1    2    0    0  0.78817218321E-02 -0.15460317271E-02  0.61179976675E+00  0.61185270087E+00  0.51109989000E-03 0.  1.
     -623    1    1    2    0    0 -0.10950128079E-02  0.34830939706E-02  0.72244768419E-04  0.17130000004E+03  0.17130000000E+03 0.  1.
      622    1    1    2    0    0 -0.67867090242E-02 -0.19370622436E-02  0.33881279558E+01  0.33881472602E+01  0.90000000000E-02 0.  1.
</event>
<event>
 5   0  0.6135700E+09  0.9118800E+02  0.7818608E-02  0.1180000E+00
       11   -1    0    0    0    0  0.00000000000E+00  0.00000000000E+00  0.39999999673E+01  0.40000000000E+01  0.51109989000E-03 0.  1.
     -623   -1    0    0    0    0  0.00000000000E+00  0.00000000000E+00  0.12525980253E-10  0.17130000000E+03  0.17130000000E+03 0.  1.
       11    1    1    2    0    0  0.37454768434E-03  0.39607866323E-02  0.52694292981E+00  0.52695819627E+00  0.51109989000E-03 0.  1.
     -623    1    1    2    0    0 -0.70319741191E-04  0.98621229195E-04  0.29280852211E-04  0.17130000000E+03  0.17130000000E+03 0.  1.
      622    1    1    2    0    0 -0.30422794297E-03 -0.40594078617E-02  0.34730277669E+01  0.34730418139E+01  0.90000000000E-02 0.  1.
</event>
<event>
 5   0  0.6135700E+09  0.9118800E+02  0.7818608E-02  0.1180000E+00
       11   -1    0    0    0    0  0.00000000000E+00  0.00000000000E+00  0.39999999673E+01  0.40000000000E+01  0.51109989000E-03 0.  1.
     -623   -1    0    0    0    0  0.00000000000E+00  0.00000000000E+00  0.12525980253E-10  0.17130000000E+03  0.17130000000E+03 0.  1.
       11    1    1    2    0    0  0.17777866263E-02 -0.45223477929E-02  0.90413210230E-01  0.90545137705E-01  0.51109989000E-03 0.  1.
     -623    1    1    2    0    0 -0.56565296536E-03 -0.55817290965E-03  0.14574536558E-03  0.17130000000E+03  0.17130000000E+03 0.  1.
      622    1    1    2    0    0 -0.12121336611E-02  0.50805207024E-02  0.39094410109E+01  0.39094548595E+01  0.90000000000E-02 0.  1.
</event>
<event>
 5   0  0.6135700E+09  0.9118800E+02  0.7818608E-02  0.1180000E+00
       11   -1    0    0    0    0  0.00000000000E+00  0.00000000000E+00  0.39999999673E+01  0.40000000000E+01  0.51109989000E-03 0. -1.
     -623   -1    0    0    0    0  0.00000000000E+00  0.00000000000E+00  0.12525980253E-10  0.17130000000E+03  0.17130000000E+03 0.  1.
       11    1    1    2    0    0 -0.12914797071E-02 -0.20564152907E-03  0.35168607924E+00  0.35168888205E+00  0.51109989000E-03 0. -1.
     -623    1    1    2    0    0 -0.30441891395E-03 -0.54386482071E-04  0.14229816117E-04  0.17130000000E+03  0.17130000000E+03 0.  1.
      622    1    1    2    0    0  0.15958986211E-02  0.26002801114E-03  0.36482996583E+01  0.36483111177E+01  0.90000000000E-02 0. -1.
</event>
<event>
 5   0  0.6135700E+09  0.9118800E+02  0.7818608E-02  0.1180000E+00
       11   -1    0    0    0    0  0.00000000000E+00  0.00000000000E+00  0.39999999673E+01  0.40000000000E+01  0.51109989000E-03 0.  1.
     -623   -1    0    0    0    0  0.00000000000E+00  0.00000000000E+00  0.12525980253E-10  0.17130000000E+03  0.17130000000E+03 0.  1.
       11    1    1    2    0    0  0.53551697562E-03  0.97018836219E-03  0.84802656950E+00  0.84802744758E+00  0.51109989000E-03 0.  1.
     -623    1    1    2    0    0  0.46607473457E-03 -0.67271027451E-03  0.13869690326E-04  0.17130000000E+03  0.17130000000E+03 0.  1.
      622    1    1    2    0    0 -0.10015917128E-02 -0.29747808392E-03  0.31519595505E+01  0.31519725728E+01  0.90000000000E-02 0.  1.
</event>
<event>
 5   0  0.6135700E+09  0.9118800E+02  0.7818608E-02  0.1180000E+00
       11   -1    0    0    0    0  0.00000000000E+00  0.00000000000E+00  0.39999999673E+01  0.40000000000E+01  0.51109989000E-03 0.  1.
     -623   -1    0    0    0    0  0.00000000000E+00  0.00000000000E+00  0.12525980253E-10  0.17130000000E+03  0.17130000000E+03 0. -1.
       11    1    1    2    0    0 -0.64444154342E-03 -0.14309934853E-03  0.64856157160E-01  0.64861530409E-01  0.51109989000E-03 0.  1.
     -623    1    1    2    0    0  0.10530640936E-04 -0.31699109703E-04  0.15687453612E-04  0.17130000000E+03  0.17130000000E+03 0. -1.
      622    1    1    2    0    0  0.63391090239E-03  0.17479845851E-03  0.39351281577E+01  0.39351385045E+01  0.90000000000E-02 0.  1.
</event>
<event>
 5   0  0.6135700E+09  0.9118800E+02  0.7818608E-02  0.1180000E+00
       11   -1    0    0    0    0  0.00000000000E+00  0.00000000000E+00  0.39999999673E+01  0.40000000000E+01  0.51109989000E-03 0.  1.
     -623   -1    0    0    0    0  0.00000000000E+00  0.00000000000E+00  0.12525980253E-10  0.17130000000E+03  0.17130000000E+03 0.  1.
       11    1    1    2    0    0  0.30460029534E-02  0.35365502810E-02  0.18401428798E+00  0.18407418267E+00  0.51109989000E-03 0.  1.
     -623    1    1    2    0    0  0.64814535217E-03 -0.26624580990E-03  0.73666416043E-04  0.17130000000E+03  0.17130000000E+03 0.  1.
      622    1    1    2    0    0 -0.36941483056E-02 -0.32703044711E-02  0.38159120134E+01  0.38159258163E+01  0.90000000000E-02 0.  1.
</event>
<event>
 5   0  0.6135700E+09  0.9118800E+02  0.7818608E-02  0.1180000E+00
       11   -1    0    0    0    0  0.00000000000E+00  0.00000000000E+00  0.39999999673E+01  0.40000000000E+01  0.51109989000E-03 0.  1.
     -623   -1    0    0    0    0  0.00000000000E+00  0.00000000000E+00  0.12525980253E-10  0.17130000000E+03  0.17130000000E+03 0. -1.
       11    1    1    2    0    0 -0.47756829594E-02 -0.39465692855E-02  0.58372403613E-01  0.58702481042E-01  0.51109989000E-03 0.  1.
     -623    1    1    2    0    0  0.46361167796E-03 -0.52202936503E-03  0.34521447873E-03  0.17130000000E+03  0.17130000000E+03 0. -1.
      622    1    1    2    0    0  0.43120712814E-02  0.44685986505E-02  0.39412823493E+01  0.39412975172E+01  0.90000000000E-02 0.  1.
</event>
<event>
 5   0  0.6135700E+09  0.9118800E+02  0.7818608E-02  0.1180000E+00
       11   -1    0    0    0    0  0.00000000000E+00  0.00000000000E+00  0.39999999673E+01  0.40000000000E+01  0.51109989000E-03 0. -1.
     -623   -1    0    0    0    0  0.00000000000E+00  0.00000000000E+00  0.12525980253E-10  0.17130000000E+03  0.17130000000E+03 0.  1.
       11    1    1    2    0    0 -0.60828769690E-02  0.92396547468E-03  0.19587721122E+00  0.19597448355E+00  0.51109989000E-03 0. -1.
     -623    1    1    2    0    0  0.44381410733E-03  0.47137242892E-05  0.11217995821E-03  0.17130000000E+03  0.17130000000E+03 0.  1.
      622    1    1    2    0    0  0.56390628617E-02 -0.92867919897E-03  0.38040105762E+01  0.38040255158E+01  0.90000000000E-02 0.  0.
</event>
<event>
 5   0  0.6135700E+09  0.9118800E+02  0.7818608E-02  0.1180000E+00
       11   -1    0    0    0    0  0.00000000000E+00  0.00000000000E+00  0.39999999673E+01  0.40000000000E+01  0.51109989000E-03 0.  1.
     -623   -1    0    0    0    0  0.00000000000E+00  0.00000000000E+00  0.12525980253E-10  0.17130000000E+03  0.17130000000E+03 0. -1.
       11    1    1    2    0    0  0.11552994082E-02 -0.36126872244E-03  0.51239004214E-01  0.51255848496E-01  0.51109989000E-03 0. -1.
     -623    1    1    2    0    0 -0.11018637089E-03  0.36474718574E-04  0.27219785495E-04  0.17130000000E+03  0.17130000000E+03 0. -1.
      622    1    1    2    0    0 -0.10451130373E-02  0.32479400387E-03  0.39487337434E+01  0.39487441515E+01  0.90000000000E-02 0.  1.
</event>
<event>
 5   0  0.6135700E+09  0.9118800E+02  0.7818608E-02  0.1180000E+00
       11   -1    0    0    0    0  0.00000000000E+00  0.00000000000E+00  0.39999999673E+01  0.40000000000E+01  0.51109989000E-03 0.  1.
     -623   -1    0    0    0    0  0.00000000000E+00  0.00000000000E+00  0.12525980253E-10  0.17130000000E+03  0.17130000000E+03 0. -1.
       11    1    1    2    0    0  0.14155946601E-02 -0.53061057451E-03  0.57538102611E+00  0.57538323914E+00  0.51109989000E-03 0.  1.
     -623    1    1    2    0    0  0.44205937990E-03  0.52290819290E-03  0.14511765784E-04  0.17130000000E+03  0.17130000000E+03 0. -1.
      622    1    1    2    0    0 -0.18576540400E-02  0.77023816170E-05  0.34246044295E+01  0.34246167595E+01  0.90000000000E-02 0.  1.
</event>
<event>
 5   0  0.6135700E+09  0.9118800E+02  0.7818608E-02  0.1180000E+00
       11   -1    0    0    0    0  0.00000000000E+00  0.00000000000E+00  0.39999999673E+01  0.40000000000E+01  0.51109989000E-03 0.  1.
     -623   -1    0    0    0    0  0.00000000000E+00  0.00000000000E+00  0.12525980253E-10  0.17130000000E+03  0.17130000000E+03 0.  1.
       11    1    1    2    0    0  0.55914246108E-02  0.36970154058E-02  0.72350263741E+00  0.72353386895E+00  0.51109989000E-03 0.  1.
     -623    1    1    2    0    0  0.20789072300E-03  0.55579428207E-03  0.51453286241E-04  0.17130000000E+03  0.17130000000E+03 0.  1.
      622    1    1    2    0    0 -0.57993153338E-02 -0.42528096879E-02  0.32764458767E+01  0.32764661300E+01  0.90000000000E-02 0.  1.
</event>
<event>
 5   0  0.6135700E+09  0.9118800E+02  0.7818608E-02  0.1180000E+00
       11   -1    0    0    0    0  0.00000000000E+00  0.00000000000E+00  0.39999999673E+01  0.40000000000E+01  0.51109989000E-03 0.  1.
     -623   -1    0    0    0    0  0.00000000000E+00  0.00000000000E+00  0.12525980253E-10  0.17130000000E+03  0.17130000000E+03 0. -1.
       11    1    1    2    0    0  0.25241375243E-03  0.81091354439E-03  0.66336151592E-02  0.67072622403E-02  0.51109989000E-03 0.  1.
     -623    1    1    2    0    0  0.13655284701E-03  0.32904860477E-04  0.83864635094E-04  0.17130000000E+03  0.17130000000E+03 0. -1.
      622    1    1    2    0    0 -0.38896659944E-03 -0.84381840487E-03  0.39932824876E+01  0.39932927377E+01  0.90000000000E-02 0.  1.
</event>
<event>
 5   0  0.6135700E+09  0.9118800E+02  0.7818608E-02  0.1180000E+00
       11   -1    0    0    0    0  0.00000000000E+00  0.00000000000E+00  0.39999999673E+01  0.40000000000E+01  0.51109989000E-03 0. -1.
     -623   -1    0    0    0    0  0.00000000000E+00  0.00000000000E+00  0.12525980253E-10  0.17130000000E+03  0.17130000000E+03 0. -1.
       11    1    1    2    0    0  0.19466124681E-02 -0.70508532040E-04  0.79265177457E+00  0.79265433275E+00  0.51109989000E-03 0. -1.
     -623    1    1    2    0    0 -0.14080266316E-03 -0.83044730882E-04  0.15664938301E-04  0.17130000000E+03  0.17130000000E+03 0. -1.
      622    1    1    2    0    0 -0.18058098049E-02  0.15355326292E-03  0.32073325278E+01  0.32073456672E+01  0.90000000000E-02 0. -1.
</event>
<event>
 5   0  0.6135700E+09  0.9118800E+02  0.7818608E-02  0.1180000E+00
       11   -1    0    0    0    0  0.00000000000E+00  0.00000000000E+00  0.39999999673E+01  0.40000000000E+01  0.51109989000E-03 0. -1.
     -623   -1    0    0    0    0  0.00000000000E+00  0.00000000000E+00  0.12525980253E-10  0.17130000000E+03  0.17130000000E+03 0.  1.
       11    1    1    2    0    0 -0.30678358475E-02 -0.42965241866E-02  0.42276770038E+00  0.42280097143E+00  0.51109989000E-03 0. -1.
     -623    1    1    2    0    0 -0.95463813423E-04 -0.11827725791E-03  0.48683137300E-04  0.17130000000E+03  0.17130000000E+03 0.  1.
      622    1    1    2    0    0  0.31632996608E-02  0.44148014444E-02  0.35771835803E+01  0.35771990250E+01  0.90000000000E-02 0. -1.
</event>
<event>
 5   0  0.6135700E+09  0.9118800E+02  0.7818608E-02  0.1180000E+00
       11   -1    0    0    0    0  0.00000000000E+00  0.00000000000E+00  0.39999999673E+01  0.40000000000E+01  0.51109989000E-03 0.  1.
     -623   -1    0    0    0    0  0.00000000000E+00  0.00000000000E+00  0.12525980253E-10  0.17130000000E+03  0.17130000000E+03 0.  1.
       11    1    1    2    0    0 -0.38124182707E-03  0.75177593127E-03  0.18668901857E+00  0.18669162110E+00  0.51109989000E-03 0.  1.
     -623    1    1    2    0    0  0.34961912607E-03 -0.25720099409E-03  0.13223360739E-04  0.17130000000E+03  0.17130000000E+03 0.  1.
      622    1    1    2    0    0  0.31622701412E-04 -0.49457493749E-03  0.38132977208E+01  0.38133083737E+01  0.90000000000E-02 0.  1.
</event>
<event>
 5   0  0.6135700E+09  0.9118800E+02  0.7818608E-02  0.1180000E+00
       11   -1    0    0    0    0  0.00000000000E+00  0.00000000000E+00  0.39999999673E+01  0.40000000000E+01  0.51109989000E-03 0.  1.
     -623   -1    0    0    0    0  0.00000000000E+00  0.00000000000E+00  0.12525980253E-10  0.17130000000E+03  0.17130000000E+03 0. -1.
       11    1    1    2    0    0  0.45297268323E-03 -0.11527016782E-02  0.26642224194E+00  0.26642561087E+00  0.51109989000E-03 0.  1.
     -623    1    1    2    0    0  0.44272072933E-04  0.11801660590E-03  0.14360349730E-04  0.17130000000E+03  0.17130000000E+03 0. -1.
      622    1    1    2    0    0 -0.49724475616E-03  0.10346850723E-02  0.37335633651E+01  0.37335743891E+01  0.90000000000E-02 0.  1.
</event>
<event>
 5   0  0.6135700E+09  0.9118800E+02  0.7818608E-02  0.1180000E+00
       11   -1    0    0    0    0  0.00000000000E+00  0.00000000000E+00  0.39999999673E+01  0.40000000000E+01  0.51109989000E-03 0. -1.
     -623   -1    0    0    0    0  0.00000000000E+00  0.00000000000E+00  0.12525980253E-10  0.17130000000E+03  0.17130000000E+03 0.  1.
       11    1    1    2    0    0 -0.63649537361E-03 -0.57123924581E-03  0.13150910373E-01  0.13188597627E-01  0.51109989000E-03 0. -1.
     -623    1    1    2    0    0  0.84489823243E-04  0.47112958857E-03  0.47853268298E-04  0.17130000000E+03  0.17130000000E+03 0.  1.
      622    1    1    2    0    0  0.55200555040E-03  0.10010965740E-03  0.39868012024E+01  0.39868114004E+01  0.90000000000E-02 0. -1.
</event>
<event>
 5   0  0.6135700E+09  0.9118800E+02  0.7818608E-02  0.1180000E+00
       11   -1    0    0    0    0  0.00000000000E+00  0.00000000000E+00  0.39999999673E+01  0.40000000000E+01  0.51109989000E-03 0. -1.
     -623   -1    0    0    0    0  0.00000000000E+00  0.00000000000E+00  0.12525980253E-10  0.17130000000E+03  0.17130000000E+03 0.  1.
       11    1    1    2    0    0 -0.10297435317E-02 -0.25003376668E-02  0.56756617132E-01  0.56823295138E-01  0.51109989000E-03 0. -1.
     -623    1    1    2    0    0 -0.22782259707E-03  0.31996801757E-03  0.77720104282E-04  0.17130000000E+03  0.17130000000E+03 0.  1.
      622    1    1    2    0    0  0.12575661287E-02  0.21803696492E-02  0.39431656301E+01  0.39431767044E+01  0.90000000000E-02 0. -1.
</event>
<event>
 5   0  0.6135700E+09  0.9118800E+02  0.7818608E-02  0.1180000E+00
       11   -1    0    0    0    0  0.00000000000E+00  0.00000000000E+00  0.39999999673E+01  0.40000000000E+01  0.51109989000E-03 0. -1.
     -623   -1    0    0    0    0  0.00000000000E+00  0.00000000000E+00  0.12525980253E-10  0.17130000000E+03  0.17130000000E+03 0.  1.
       11    1    1    2    0    0  0.39914734791E-03  0.34670620451E-02  0.17454219368E+00  0.17457782916E+00  0.51109989000E-03 0. -1.
     -623    1    1    2    0    0 -0.43130117215E-03 -0.92077079902E-03  0.47040517756E-04  0.17130000000E+03  0.17130000000E+03 0.  1.
      622    1    1    2    0    0  0.32153824235E-04 -0.25462912461E-02  0.38254107332E+01  0.38254221678E+01  0.90000000000E-02 0. -1.
</event>
<event>
 5   0  0.6135700E+09  0.9118800E+02  0.7818608E-02  0.1180000E+00
       11   -1    0    0    0    0  0.00000000000E+00  0.00000000000E+00  0.39999999673E+01  0.40000000000E+01  0.51109989000E-03 0. -1.
     -623   -1    0    0    0    0  0.00000000000E+00  0.00000000000E+00  0.12525980253E-10  0.17130000000E+03  0.17130000000E+03 0.  1.
       11    1    1    2    0    0  0.76656685943E-03  0.85302505166E-03  0.13476912386E-01  0.13535274853E-01  0.51109989000E-03 0. -1.
     -623    1    1    2    0    0 -0.38392538129E-03  0.15170049546E-03  0.68634704966E-04  0.17130000000E+03  0.17130000000E+03 0.  1.
      622    1    1    2    0    0 -0.38264147814E-03 -0.10047255471E-02  0.39864544203E+01  0.39864647246E+01  0.90000000000E-02 0. -1.
</event>
<event>
 5   0  0.6135700E+09  0.9118800E+02  0.7818608E-02  0.1180000E+00
       11   -1    0    0    0    0  0.00000000000E+00  0.00000000000E+00  0.39999999673E+01  0.40000000000E+01  0.51109989000E-03 0.  1.
     -623   -1    0    0    0    0  0.00000000000E+00  0.00000000000E+00  0.12525980253E-10  0.17130000000E+03  0.17130000000E+03 0. -1.
       11    1    1    2    0    0 -0.46830008154E-03  0.18336161771E-02  0.38756501445E-02  0.43431944174E-02  0.51109989000E-03 0. -1.
     -623    1    1    2    0    0 -0.31262753850E-03 -0.13228472279E-02  0.47776267071E-03  0.17130000001E+03  0.17130000000E+03 0. -1.
      622    1    1    2    0    0  0.78092762005E-03 -0.51076894913E-03  0.39956465545E+01  0.39956567995E+01  0.90000000000E-02 0.  1.
</event>
<event>
 5   0  0.6135700E+09  0.9118800E+02  0.7818608E-02  0.1180000E+00
       11   -1    0    0    0    0  0.00000000000E+00  0.00000000000E+00  0.39999999673E+01  0.40000000000E+01  0.51109989000E-03 0. -1.
     -623   -1    0    0    0    0  0.00000000000E+00  0.00000000000E+00  0.12525980253E-10  0.17130000000E+03  0.17130000000E+03 0. -1.
       11    1    1    2    0    0 -0.35906379099E-02 -0.13643794432E-01  0.63844380371E-01  0.65386634214E-01  0.51109989000E-03 0. -1.
     -623    1    1    2    0    0  0.75978246341E-03  0.57108238737E-02  0.15616341037E-02  0.17130000010E+03  0.17130000000E+03 0. -1.
      622    1    1    2    0    0  0.28308554465E-02  0.79329705585E-02  0.39345939529E+01  0.39346132618E+01  0.90000000000E-02 0. -1.
</event>
<event>
 5   0  0.6135700E+09  0.9118800E+02  0.7818608E-02  0.1180000E+00
       11   -1    0    0    0    0  0.00000000000E+00  0.00000000000E+00  0.39999999673E+01  0.40000000000E+01  0.51109989000E-03 0.  1.
     -623   -1    0    0    0    0  0.00000000000E+00  0.00000000000E+00  0.12525980253E-10  0.17130000000E+03  0.17130000000E+03 0. -1.
       11    1    1    2    0    0  0.33699600221E-03  0.16185334380E-03  0.65122638468E-01  0.65125717093E-01  0.51109989000E-03 0.  1.
     -623    1    1    2    0    0  0.15894490522E-03 -0.29492936114E-03  0.13372408838E-04  0.17130000000E+03  0.17130000000E+03 0. -1.
      622    1    1    2    0    0 -0.49594090701E-03  0.13307601656E-03  0.39348639460E+01  0.39348742721E+01  0.90000000000E-02 0.  1.
</event>
<event>
 5   0  0.6135700E+09  0.9118800E+02  0.7818608E-02  0.1180000E+00
       11   -1    0    0    0    0  0.00000000000E+00  0.00000000000E+00  0.39999999673E+01  0.40000000000E+01  0.51109989000E-03 0.  1.
     -623   -1    0    0    0    0  0.00000000000E+00  0.00000000000E+00  0.12525980253E-10  0.17130000000E+03  0.17130000000E+03 0.  1.
       11    1    1    2    0    0 -0.31574882168E-02  0.87003659572E-03  0.11941558357E+00  0.11946158176E+00  0.51109989000E-03 0.  1.
     -623    1    1    2    0    0  0.42004639764E-03 -0.88964905790E-03  0.57370687219E-04  0.17130000000E+03  0.17130000000E+03 0.  1.
      622    1    1    2    0    0  0.27374418183E-02  0.19612464136E-04  0.38805270219E+01  0.38805384242E+01  0.90000000000E-02 0.  1.
</event>
<event>
 5   0  0.6135700E+09  0.9118800E+02  0.7818608E-02  0.1180000E+00
       11   -1    0    0    0    0  0.00000000000E+00  0.00000000000E+00  0.39999999673E+01  0.40000000000E+01  0.51109989000E-03 0.  1.
     -623   -1    0    0    0    0  0.00000000000E+00  0.00000000000E+00  0.12525980253E-10  0.17130000000E+03  0.17130000000E+03 0. -1.
       11    1    1    2    0    0  0.93176255039E-02  0.99344854247E-02  0.10402425968E+01  0.10403318863E+01  0.51109989000E-03 0.  1.
     -623    1    1    2    0    0 -0.49826761831E-03 -0.50675294799E-02  0.12015851161E-03  0.17130000008E+03  0.17130000000E+03 0. -1.
      622    1    1    2    0    0 -0.88193578855E-02 -0.48669559448E-02  0.29596372120E+01  0.29596680380E+01  0.90000000000E-02 0.  1.
</event>
<event>
 5   0  0.6135700E+09  0.9118800E+02  0.7818608E-02  0.1180000E+00
       11   -1    0    0    0    0  0.00000000000E+00  0.00000000000E+00  0.39999999673E+01  0.40000000000E+01  0.51109989000E-03 0.  1.
     -623   -1    0    0    0    0  0.00000000000E+00  0.00000000000E+00  0.12525980253E-10  0.17130000000E+03  0.17130000000E+03 0. -1.
       11    1    1    2    0    0 -0.95338346761E-03  0.12675761152E-02  0.90355538607E-02  0.91879347755E-02  0.51109989000E-03 0.  1.
     -623    1    1    2    0    0 -0.11947924678E-02 -0.26832696267E-03  0.16320431493E-03  0.17130000000E+03  0.17130000000E+03 0. -1.
      622    1    1    2    0    0  0.21481759354E-02 -0.99924915253E-03  0.39908012092E+01  0.39908120608E+01  0.90000000000E-02 0.  1.
</event>
<event>
 5   0  0.6135700E+09  0.9118800E+02  0.7818608E-02  0.1180000E+00
       11   -1    0    0    0    0  0.00000000000E+00  0.00000000000E+00  0.39999999673E+01  0.40000000000E+01  0.51109989000E-03 0. -1.
     -623   -1    0    0    0    0  0.00000000000E+00  0.00000000000E+00  0.12525980253E-10  0.17130000000E+03  0.17130000000E+03 0.  1.
       11    1    1    2    0    0 -0.74249830273E-04 -0.11366856631E-03  0.37413014510E+00  0.37413051884E+00  0.51109989000E-03 0. -1.
     -623    1    1    2    0    0 -0.92642285579E-03  0.34971776496E-03  0.11659482317E-04  0.17130000000E+03  0.17130000000E+03 0.  1.
      622    1    1    2    0    0  0.10006726861E-02 -0.23604919865E-03  0.36258581628E+01  0.36258694783E+01  0.90000000000E-02 0. -1.
</event>
<event>
 5   0  0.6135700E+09  0.9118800E+02  0.7818608E-02  0.1180000E+00
       11   -1    0    0    0    0  0.00000000000E+00  0.00000000000E+00  0.39999999673E+01  0.40000000000E+01  0.51109989000E-03 0. -1.
     -623   -1    0    0    0    0  0.00000000000E+00  0.00000000000E+00  0.12525980253E-10  0.17130000000E+03  0.17130000000E+03 0. -1.
       11    1    1    2    0    0 -0.46529358258E-04  0.26092412675E-03  0.12594444174E+00  0.12594575767E+00  0.51109989000E-03 0. -1.
     -623    1    1    2    0    0  0.38513242061E-04  0.63985966402E-04  0.11751112141E-04  0.17130000000E+03  0.17130000000E+03 0. -1.
      622    1    1    2    0    0  0.80161161964E-05 -0.32491009315E-03  0.38740437745E+01  0.38740542423E+01  0.90000000000E-02 0. -1.
</event>
<event>
 5   0  0.6135700E+09  0.9118800E+02  0.7818608E-02  0.1180000E+00
       11   -1    0    0    0    0  0.00000000000E+00  0.00000000000E+00  0.39999999673E+01  0.40000000000E+01  0.51109989000E-03 0. -1.
     -623   -1    0    0    0    0  0.00000000000E+00  0.00000000000E+00  0.12525980253E-10  0.17130000000E+03  0.17130000000E+03 0.  1.
       11    1    1    2    0    0  0.22444511937E-03 -0.34982947077E-03  0.52536713980E-02  0.52948127943E-02  0.51109989000E-03 0. -1.
     -623    1    1    2    0    0 -0.16208327852E-03  0.15075893464E-03  0.51252786929E-04  0.17130000000E+03  0.17130000000E+03 0.  1.
      622    1    1    2    0    0 -0.62361840878E-04  0.19907053615E-03  0.39946950425E+01  0.39947051864E+01  0.90000000000E-02 0. -1.
</event>
<event>
 5   0  0.6135700E+09  0.9118800E+02  0.7818608E-02  0.1180000E+00
       11   -1    0    0    0    0  0.00000000000E+00  0.00000000000E+00  0.39999999673E+01  0.40000000000E+01  0.51109989000E-03 0.  1.
     -623   -1    0    0    0    0  0.00000000000E+00  0.00000000000E+00  0.12525980253E-10  0.17130000000E+03  0.17130000000E+03 0. -1.
       11    1    1    2    0    0 -0.65314103561E-03  0.65896243809E-02  0.58936347549E+00  0.58940089685E+00  0.51109989000E-03 0. -1.
     -623    1    1    2    0    0  0.17904118084E-03  0.53123625366E-03  0.56731087018E-04  0.17130000000E+03  0.17130000000E+03 0. -1.
      622    1    1    2    0    0  0.47409985430E-03 -0.71208606359E-02  0.34105797711E+01  0.34105991126E+01  0.90000000000E-02 0.  1.
</event>
<event>
 5   0  0.6135700E+09  0.9118800E+02  0.7818608E-02  0.1180000E+00
       11   -1    0    0    0    0  0.00000000000E+00  0.00000000000E+00  0.39999999673E+01  0.40000000000E+01  0.51109989000E-03 0.  1.
     -623   -1    0    0    0    0  0.00000000000E+00  0.00000000000E+00  0.12525980253E-10  0.17130000000E+03  0.17130000000E+03 0. -1.
       11    1    1    2    0    0 -0.13281984151E-03 -0.37576104922E-03  0.14181853297E-01  0.14196655318E-01  0.51109989000E-03 0.  1.
     -623    1    1    2    0    0  0.39964324741E-03  0.64116382404E-03  0.24949893075E-04  0.17130000000E+03  0.17130000000E+03 0. -1.
      622    1    1    2    0    0 -0.26682340590E-03 -0.26540277482E-03  0.39857931642E+01  0.39858033430E+01  0.90000000000E-02 0.  1.
</event>
<event>
 5   0  0.6135700E+09  0.9118800E+02  0.7818608E-02  0.1180000E+00
       11   -1    0    0    0    0  0.00000000000E+00  0.00000000000E+00  0.39999999673E+01  0.40000000000E+01  0.51109989000E-03 0.  1.
     -623   -1    0    0    0    0  0.00000000000E+00  0.00000000000E+00  0.12525980253E-10  0.17130000000E+03  0.17130000000E+03 0. -1.
       11    1    1    2    0    0 -0.13326908863E-02  0.82812705062E-03  0.41183153206E-02  0.44366207397E-02  0.51109989000E-03 0. -1.
     -623    1    1    2    0    0  0.58398954093E-03 -0.24084002130E-03  0.32852382259E-03  0.17130000000E+03  0.17130000000E+03 0. -1.
      622    1    1    2    0    0  0.74870134513E-03 -0.58728702924E-03  0.39955531296E+01  0.39955633792E+01  0.90000000000E-02 0.  1.
</event>
<event>
 5   0  0.6135700E+09  0.9118800E+02  0.7818608E-02  0.1180000E+00
       11   -1    0    0    0    0  0.00000000000E+00  0.00000000000E+00  0.39999999673E+01  0.40000000000E+01  0.51109989000E-03 0.  1.
     -623   -1    0    0    0    0  0.00000000000E+00  0.00000000000E+00  0.12525980253E-10  0.17130000000E+03  0.17130000000E+03 0.  1.
       11    1    1    2    0    0 -0.78031355293E-03 -0.87284758051E-03  0.11192077104E+01  0.11192084395E+01  0.51109989000E-03 0.  1.
     -623    1    1    2    0    0  0.56588895765E-03  0.55659394881E-03  0.14782284837E-04  0.17130000000E+03  0.17130000000E+03 0.  1.
      622    1    1    2    0    0  0.21442459113E-03  0.31625362762E-03  0.28807775040E+01  0.28807915880E+01  0.90000000000E-02 0.  1.
</event>
<event>
 5   0  0.6135700E+09  0.9118800E+02  0.7818608E-02  0.1180000E+00
       11   -1    0    0    0    0  0.00000000000E+00  0.00000000000E+00  0.39999999673E+01  0.40000000000E+01  0.51109989000E-03 0.  1.
     -623   -1    0    0    0    0  0.00000000000E+00  0.00000000000E+00  0.12525980253E-10  0.17130000000E+03  0.17130000000E+03 0. -1.
       11    1    1    2    0    0 -0.26678680240E-03  0.16652644596E-03  0.18797613775E+00  0.18797709566E+00  0.51109989000E-03 0.  1.
     -623    1    1    2    0    0 -0.85078630613E-03  0.43954382887E-03  0.11764236737E-04  0.17130000000E+03  0.17130000000E+03 0. -1.
      622    1    1    2    0    0  0.11175731085E-02 -0.60607027483E-03  0.38120120654E+01  0.38120229017E+01  0.90000000000E-02 0.  1.
</event>
<event>
 5   0  0.6135700E+09  0.9118800E+02  0.7818608E-02  0.1180000E+00
       11   -1    0    0    0    0  0.00000000000E+00  0.00000000000E+00  0.39999999673E+01  0.40000000000E+01  0.51109989000E-03 0. -1.
     -623   -1    0    0    0    0  0.00000000000E+00  0.00000000000E+00  0.12525980253E-10  0.17130000000E+03  0.17130000000E+03 0. -1.
       11    1    1    2    0    0  0.39688700142E-03  0.16327933305E-02  0.77515999499E+00  0.77516198474E+00  0.51109989000E-03 0. -1.
     -623    1    1    2    0    0 -0.38968771907E-04 -0.23266656116E-04  0.14937437124E-04  0.17130000000E+03  0.17130000000E+03 0. -1.
      622    1    1    2    0    0 -0.35791822926E-03 -0.16095266742E-02  0.32248250604E+01  0.32248380408E+01  0.90000000000E-02 0.  1.
</event>
<event>
 5   0  0.6135700E+09  0.9118800E+02  0.7818608E-02  0.1180000E+00
       11   -1    0    0    0    0  0.00000000000E+00  0.00000000000E+00  0.39999999673E+01  0.40000000000E+01  0.51109989000E-03 0. -1.
     -623   -1    0    0    0    0  0.00000000000E+00  0.00000000000E+00  0.12525980253E-10  0.17130000000E+03  0.17130000000E+03 0. -1.
       11    1    1    2    0    0  0.34161420673E-02 -0.11846186033E-01  0.19268109476E+00  0.19307580804E+00  0.51109989000E-03 0. -1.
     -623    1    1    2    0    0  0.17901313552E-02  0.43319252215E-02  0.41635982087E-03  0.17130000006E+03  0.17130000000E+03 0. -1.
      622    1    1    2    0    0 -0.52062734223E-02  0.75142608123E-02  0.38069025124E+01  0.38069241269E+01  0.90000000000E-02 0. -1.
</event>
<event>
 5   0  0.6135700E+09  0.9118800E+02  0.7818608E-02  0.1180000E+00
       11   -1    0    0    0    0  0.00000000000E+00  0.00000000000E+00  0.39999999673E+01  0.40000000000E+01  0.51109989000E-03 0.  1.
     -623   -1    0    0    0    0  0.00000000000E+00  0.00000000000E+00  0.12525980253E-10  0.17130000000E+03  0.17130000000E+03 0. -1.
       11    1    1    2    0    0 -0.74136589136E-02  0.55735405131E-02  0.71637928249E+00  0.71643950498E+00  0.51109989000E-03 0.  1.
     -623    1    1    2    0    0 -0.44724288298E-03  0.11339230918E-04  0.86683855835E-04  0.17130000000E+03  0.17130000000E+03 0. -1.
      622    1    1    2    0    0  0.78609017968E-02 -0.55848797440E-02  0.32835340030E+01  0.32835604964E+01  0.90000000000E-02 0.  1.
</event>
<event>
 5   0  0.6135700E+09  0.9118800E+02  0.7818608E-02  0.1180000E+00
       11   -1    0    0    0    0  0.00000000000E+00  0.00000000000E+00  0.39999999673E+01  0.40000000000E+01  0.51109989000E-03 0.  1.
     -623   -1    0    0    0    0  0.00000000000E+00  0.00000000000E+00  0.12525980253E-10  0.17130000000E+03  0.17130000000E+03 0.  1.
       11    1    1    2    0    0  0.95049314696E-03  0.30263621386E-03  0.12847224442E+00  0.12847713351E+00  0.51109989000E-03 0.  1.
     -623    1    1    2    0    0  0.14214634748E-03 -0.91302111695E-04  0.15477502504E-04  0.17130000000E+03  0.17130000000E+03 0.  1.
      622    1    1    2    0    0 -0.10926394953E-02 -0.21133410161E-03  0.38715122696E+01  0.38715228906E+01  0.90000000000E-02 0.  1.
</event>
<event>
 5   0  0.6135700E+09  0.9118800E+02  0.7818608E-02  0.1180000E+00
       11   -1    0    0    0    0  0.00000000000E+00  0.00000000000E+00  0.39999999673E+01  0.40000000000E+01  0.51109989000E-03 0. -1.
     -623   -1    0    0    0    0  0.00000000000E+00  0.00000000000E+00  0.12525980253E-10  0.17130000000E+03  0.17130000000E+03 0.  1.
       11    1    1    2    0    0 -0.18128437423E-02 -0.29444254275E-03  0.17030114594E+00  0.17031181589E+00  0.51109989000E-03 0. -1.
     -623    1    1    2    0    0 -0.44863711797E-03 -0.63427812830E-03  0.21994686363E-04  0.17130000000E+03  0.17130000000E+03 0.  1.
      622    1    1    2    0    0  0.22614808617E-02  0.92872067306E-03  0.38296768394E+01  0.38296881950E+01  0.90000000000E-02 0. -1.
</event>
<event>
 5   0  0.6135700E+09  0.9118800E+02  0.7818608E-02  0.1180000E+00
       11   -1    0    0    0    0  0.00000000000E+00  0.00000000000E+00  0.39999999673E+01  0.40000000000E+01  0.51109989000E-03 0.  1.
     -623   -1    0    0    0    0  0.00000000000E+00  0.00000000000E+00  0.12525980253E-10  0.17130000000E+03  0.17130000000E+03 0.  1.
       11    1    1    2    0    0  0.49479778630E-02  0.24318167562E-03  0.25827755069E+00  0.25832556210E+00  0.51109989000E-03 0.  1.
     -623    1    1    2    0    0  0.33129301254E-03  0.30483217742E-02  0.64002400172E-04  0.17130000003E+03  0.17130000000E+03 0.  1.
      622    1    1    2    0    0 -0.52792708755E-02 -0.32915034498E-02  0.37416584143E+01  0.37416744104E+01  0.90000000000E-02 0.  1.
</event>
<event>
 5   0  0.6135700E+09  0.9118800E+02  0.7818608E-02  0.1180000E+00
       11   -1    0    0    0    0  0.00000000000E+00  0.00000000000E+00  0.39999999673E+01  0.40000000000E+01  0.51109989000E-03 0.  1.
     -623   -1    0    0    0    0  0.00000000000E+00  0.00000000000E+00  0.12525980253E-10  0.17130000000E+03  0.17130000000E+03 0. -1.
       11    1    1    2    0    0  0.60459795633E-03  0.40155384660E-03  0.82851972244E-01  0.82856727611E-01  0.51109989000E-03 0.  1.
     -623    1    1    2    0    0  0.22959132136E-03 -0.55283643053E-03  0.15154700477E-04  0.17130000000E+03  0.17130000000E+03 0. -1.
      622    1    1    2    0    0 -0.83418927768E-03  0.15128258393E-03  0.39171328404E+01  0.39171432713E+01  0.90000000000E-02 0.  1.
</event>
<event>
 5   0  0.6135700E+09  0.9118800E+02  0.7818608E-02  0.1180000E+00
       11   -1    0    0    0    0  0.00000000000E+00  0.00000000000E+00  0.39999999673E+01  0.40000000000E+01  0.51109989000E-03 0. -1.
     -623   -1    0    0    0    0  0.00000000000E+00  0.00000000000E+00  0.12525980253E-10  0.17130000000E+03  0.17130000000E+03 0. -1.
       11    1    1    2    0    0 -0.42137857827E-02  0.12411233422E-01  0.29647762749E+00  0.29676765243E+00  0.51109989000E-03 0. -1.
     -623    1    1    2    0    0 -0.17345481511E-02 -0.99071777691E-02  0.30684814484E-03  0.17130000030E+03  0.17130000000E+03 0. -1.
      622    1    1    2    0    0  0.59483339338E-02 -0.25040556527E-02  0.37032154917E+01  0.37032320520E+01  0.90000000000E-02 0. -1.
</event>
<event>
 5   0  0.6135700E+09  0.9118800E+02  0.7818608E-02  0.1180000E+00
       11   -1    0    0    0    0  0.00000000000E+00  0.00000000000E+00  0.39999999673E+01  0.40000000000E+01  0.51109989000E-03 0. -1.
     -623   -1    0    0    0    0  0.00000000000E+00  0.00000000000E+00  0.12525980253E-10  0.17130000000E+03  0.17130000000E+03 0.  1.
       11    1    1    2    0    0  0.11305480453E-02  0.73485179005E-03  0.19858823255E+00  0.19859346786E+00  0.51109989000E-03 0. -1.
     -623    1    1    2    0    0 -0.11294136575E-03 -0.40208297054E-04  0.16056346004E-04  0.17130000000E+03  0.17130000000E+03 0.  1.
      622    1    1    2    0    0 -0.10176066796E-02 -0.69464349300E-03  0.38013956785E+01  0.38014065321E+01  0.90000000000E-02 0. -1.
</event>
<event>
 5   0  0.6135700E+09  0.9118800E+02  0.7818608E-02  0.1180000E+00
       11   -1    0    0    0    0  0.00000000000E+00  0.00000000000E+00  0.39999999673E+01  0.40000000000E+01  0.51109989000E-03 0. -1.
     -623   -1    0    0    0    0  0.00000000000E+00  0.00000000000E+00  0.12525980253E-10  0.17130000000E+03  0.17130000000E+03 0.  1.
       11    1    1    2    0    0  0.12106555392E-01  0.32739915001E-02  0.10760698129E+01  0.10761430161E+01  0.51109989000E-03 0. -1.
     -623    1    1    2    0    0 -0.16637870620E-04 -0.52924858069E-04  0.11379215295E-03  0.17130000000E+03  0.17130000000E+03 0.  1.
      622    1    1    2    0    0 -0.12089917521E-01 -0.32210666421E-02  0.29238163623E+01  0.29238569838E+01  0.90000000000E-02 0.  0.
</event>
<event>
 5   0  0.6135700E+09  0.9118800E+02  0.7818608E-02  0.1180000E+00
       11   -1    0    0    0    0  0.00000000000E+00  0.00000000000E+00  0.39999999673E+01  0.40000000000E+01  0.51109989000E-03 0. -1.
     -623   -1    0    0    0    0  0.00000000000E+00  0.00000000000E+00  0.12525980253E-10  0.17130000000E+03  0.17130000000E+03 0. -1.
       11    1    1    2    0    0  0.79100229771E-03  0.10128406321E-02  0.10036157714E+01  0.10036167243E+01  0.51109989000E-03 0. -1.
     -623    1    1    2    0    0  0.14299674898E-03 -0.50722616557E-06  0.14753254247E-04  0.17130000000E+03  0.17130000000E+03 0. -1.
      622    1    1    2    0    0 -0.93399904668E-03 -0.10123334059E-02  0.29963694427E+01  0.29963832756E+01  0.90000000000E-02 0.  0.
</event>
<event>
 5   0  0.6135700E+09  0.9118800E+02  0.7818608E-02  0.1180000E+00
       11   -1    0    0    0    0  0.00000000000E+00  0.00000000000E+00  0.39999999673E+01  0.40000000000E+01  0.51109989000E-03 0. -1.
     -623   -1    0    0    0    0  0.00000000000E+00  0.00000000000E+00  0.12525980253E-10  0.17130000000E+03  0.17130000000E+03 0. -1.
       11    1    1    2    0    0  0.25496064912E-02 -0.54206045488E-05  0.60654664798E-01  0.60710378911E-01  0.51109989000E-03 0. -1.
     -623    1    1    2    0    0 -0.50295541993E-03  0.73216577720E-03  0.66563549421E-04  0.17130000000E+03  0.17130000000E+03 0. -1.
      622    1    1    2    0    0 -0.20466510706E-02 -0.72674517369E-03  0.39392787446E+01  0.39392896244E+01  0.90000000000E-02 0. -1.
</event>
<event>
 5   0  0.6135700E+09  0.9118800E+02  0.7818608E-02  0.1180000E+00
       11   -1    0    0    0    0  0.00000000000E+00  0.00000000000E+00  0.39999999673E+01  0.40000000000E+01  0.51109989000E-03 0.  1.
     -623   -1    0    0    0    0  0.00000000000E+00  0.00000000000E+00  0.12525980253E-10  0.17130000000E+03  0.17130000000E+03 0.  1.
       11    1    1    2    0    0 -0.36403545904E-03 -0.88048571008E-03  0.18793146374E+00  0.18793457389E+00  0.51109989000E-03 0.  1.
     -623    1    1    2    0    0 -0.30518062130E-03  0.16236095502E-03  0.13828415935E-04  0.17130000000E+03  0.17130000000E+03 0.  1.
      622    1    1    2    0    0  0.66921608034E-03  0.71812475506E-03  0.38120546752E+01  0.38120654258E+01  0.90000000000E-02 0.  1.
</event>
<event>
 5   0  0.6135700E+09  0.9118800E+02  0.7818608E-02  0.1180000E+00
       11   -1    0    0    0    0  0.00000000000E+00  0.00000000000E+00  0.39999999673E+01  0.40000000000E+01  0.51109989000E-03 0.  1.
     -623   -1    0    0    0    0  0.00000000000E+00  0.00000000000E+00  0.12525980253E-10  0.17130000000E+03  0.17130000000E+03 0.  1.
       11    1    1    2    0    0 -0.26550629578E-03 -0.14801291461E-03  0.50345655893E-02  0.50695636090E-02  0.51109989000E-03 0.  1.
     -623    1    1    2    0    0  0.33393809679E-03  0.33547250659E-03  0.45108885377E-04  0.17130000000E+03  0.17130000000E+03 0.  1.
      622    1    1    2    0    0 -0.68431801200E-04 -0.18745959216E-03  0.39949202951E+01  0.39949304379E+01  0.90000000000E-02 0.  1.
</event>
<event>
 5   0  0.6135700E+09  0.9118800E+02  0.7818608E-02  0.1180000E+00
       11   -1    0    0    0    0  0.00000000000E+00  0.00000000000E+00  0.39999999673E+01  0.40000000000E+01  0.51109989000E-03 0. -1.
     -623   -1    0    0    0    0  0.00000000000E+00  0.00000000000E+00  0.12525980253E-10  0.17130000000E+03  0.17130000000E+03 0. -1.
       11    1    1    2    0    0  0.93163344081E-03  0.14472522744E-02  0.88675927039E+00  0.88676108807E+00  0.51109989000E-03 0. -1.
     -623    1    1    2    0    0 -0.15623495029E-03 -0.10407884893E-06  0.15227012954E-04  0.17130000000E+03  0.17130000000E+03 0. -1.
      622    1    1    2    0    0 -0.77539849107E-03 -0.14471481955E-02  0.31132254559E+01  0.31132388978E+01  0.90000000000E-02 0. -1.
</event>
<event>
 5   0  0.6135700E+09  0.9118800E+02  0.7818608E-02  0.1180000E+00
       11   -1    0    0    0    0  0.00000000000E+00  0.00000000000E+00  0.39999999673E+01  0.40000000000E+01  0.51109989000E-03 0.  1.
     -623   -1    0    0    0    0  0.00000000000E+00  0.00000000000E+00  0.12525980253E-10  0.17130000000E+03  0.17130000000E+03 0. -1.
       11    1    1    2    0    0  0.48347241318E-02 -0.87403799390E-02  0.13972342084E+00  0.14008092073E+00  0.51109989000E-03 0.  1.
     -623    1    1    2    0    0 -0.50923843437E-03 -0.77338084016E-03  0.38211086335E-03  0.17130000000E+03  0.17130000000E+03 0. -1.
      622    1    1    2    0    0 -0.43254856975E-02  0.95137607792E-02  0.38598944354E+01  0.38599190761E+01  0.90000000000E-02 0.  1.
</event>
<event>
 5   0  0.6135700E+09  0.9118800E+02  0.7818608E-02  0.1180000E+00
       11   -1    0    0    0    0  0.00000000000E+00  0.00000000000E+00  0.39999999673E+01  0.40000000000E+01  0.51109989000E-03 0.  1.
     -623   -1    0    0    0    0  0.00000000000E+00  0.00000000000E+00  0.12525980253E-10  0.17130000000E+03  0.17130000000E+03 0.  1.
       11    1    1    2    0    0 -0.92585281218E-03  0.39064551800E-04  0.76462247105E-01  0.76469570320E-01  0.51109989000E-03 0.  1.
     -623    1    1    2    0    0  0.12840755543E-02 -0.46259750782E-03  0.17657575463E-04  0.17130000001E+03  0.17130000000E+03 0.  1.
      622    1    1    2    0    0 -0.35822274569E-03  0.42353295732E-03  0.39235200739E+01  0.39235304355E+01  0.90000000000E-02 0.  1.
</event>
<event>
 5   0  0.6135700E+09  0.9118800E+02  0.7818608E-02  0.1180000E+00
       11   -1    0    0    0    0  0.00000000000E+00  0.00000000000E+00  0.39999999673E+01  0.40000000000E+01  0.51109989000E-03 0.  1.
     -623   -1    0    0    0    0  0.00000000000E+00  0.00000000000E+00  0.12525980253E-10  0.17130000000E+03  0.17130000000E+03 0.  1.
       11    1    1    2    0    0  0.14290445685E-02 -0.28581002959E-02  0.98794265793E+00  0.98794795788E+00  0.51109989000E-03 0.  1.
     -623    1    1    2    0    0 -0.26508086003E-03 -0.35271612731E-05  0.20297795904E-04  0.17130000000E+03  0.17130000000E+03 0.  1.
      622    1    1    2    0    0 -0.11639637084E-02  0.28616274571E-02  0.30120370116E+01  0.30120520419E+01  0.90000000000E-02 0.  1.
</event>
<event>
 5   0  0.6135700E+09  0.9118800E+02  0.7818608E-02  0.1180000E+00
       11   -1    0    0    0    0  0.00000000000E+00  0.00000000000E+00  0.39999999673E+01  0.40000000000E+01  0.51109989000E-03 0. -1.
     -623   -1    0    0    0    0  0.00000000000E+00  0.00000000000E+00  0.12525980253E-10  0.17130000000E+03  0.17130000000E+03 0.  1.
       11    1    1    2    0    0  0.55346714406E-03 -0.62106404104E-02  0.48322984958E+00  0.48327034580E+00  0.51109989000E-03 0. -1.
     -623    1    1    2    0    0  0.40798569920E-03 -0.75921486200E-03  0.59020441654E-04  0.17130000000E+03  0.17130000000E+03 0.  1.
      622    1    1    2    0    0 -0.96145284274E-03  0.69698552715E-02  0.35167110922E+01  0.35167296469E+01  0.90000000000E-02 0. -1.
</event>
<event>
 5   0  0.6135700E+09  0.9118800E+02  0.7818608E-02  0.1180000E+00
       11   -1    0    0    0    0  0.00000000000E+00  0.00000000000E+00  0.39999999673E+01  0.40000000000E+01  0.51109989000E-03 0. -1.
     -623   -1    0    0    0    0  0.00000000000E+00  0.00000000000E+00  0.12525980253E-10  0.17130000000E+03  0.17130000000E+03 0.  1.
       11    1    1    2    0    0  0.39988456539E-02  0.68227684516E-02  0.94014884637E+00  0.94018224589E+00  0.51109989000E-03 0. -1.
     -623    1    1    2    0    0  0.95309528814E-04  0.32436600530E-03  0.57689624172E-04  0.17130000000E+03  0.17130000000E+03 0.  1.
      622    1    1    2    0    0 -0.40941551827E-02 -0.71471344569E-02  0.30597934314E+01  0.30598177538E+01  0.90000000000E-02 0. -1.
</event>
<event>
 5   0  0.6135700E+09  0.9118800E+02  0.7818608E-02  0.1180000E+00
       11   -1    0    0    0    0  0.00000000000E+00  0.00000000000E+00  0.39999999673E+01  0.40000000000E+01  0.51109989000E-03 0. -1.
     -623   -1    0    0    0    0  0.00000000000E+00  0.00000000000E+00  0.12525980253E-10  0.17130000000E+03  0.17130000000E+03 0. -1.
       11    1    1    2    0    0 -0.22678685092E-02  0.17353479149E-02  0.23886765421E+00  0.23888526976E+00  0.51109989000E-03 0. -1.
     -623    1    1    2    0    0 -0.13476969515E-03 -0.17834129438E-03  0.29440861952E-04  0.17130000000E+03  0.17130000000E+03 0. -1.
      622    1    1    2    0    0  0.24026382045E-02 -0.15570066204E-02  0.37611028759E+01  0.37611147337E+01  0.90000000000E-02 0.  1.
</event>
<event>
 5   0  0.6135700E+09  0.9118800E+02  0.7818608E-02  0.1180000E+00
       11   -1    0    0    0    0  0.00000000000E+00  0.00000000000E+00  0.39999999673E+01  0.40000000000E+01  0.51109989000E-03 0.  1.
     -623   -1    0    0    0    0  0.00000000000E+00  0.00000000000E+00  0.12525980253E-10  0.17130000000E+03  0.17130000000E+03 0.  1.
       11    1    1    2    0    0 -0.88107610700E-03 -0.18005218818E-02  0.39817210455E+00  0.39817747831E+00  0.51109989000E-03 0.  1.
     -623    1    1    2    0    0  0.18386919200E-03  0.75544416585E-04  0.17066108585E-04  0.17130000000E+03  0.17130000000E+03 0.  1.
      622    1    1    2    0    0  0.69720691499E-03  0.17249774653E-02  0.36018107967E+01  0.36018225216E+01  0.90000000000E-02 0.  1.
</event>
<event>
 5   0  0.6135700E+09  0.9118800E+02  0.7818608E-02  0.1180000E+00
       11   -1    0    0    0    0  0.00000000000E+00  0.00000000000E+00  0.39999999673E+01  0.40000000000E+01  0.51109989000E-03 0. -1.
     -623   -1    0    0    0    0  0.00000000000E+00  0.00000000000E+00  0.12525980253E-10  0.17130000000E+03  0.17130000000E+03 0.  1.
       11    1    1    2    0    0 -0.31466748386E-03  0.11035792071E-02  0.12596405059E+00  0.12597031462E+00  0.51109989000E-03 0. -1.
     -623    1    1    2    0    0 -0.78985126876E-04 -0.19876824400E-03  0.16811434012E-04  0.17130000000E+03  0.17130000000E+03 0.  1.
      622    1    1    2    0    0  0.39365261074E-03 -0.90481096309E-03  0.38740191053E+01  0.38740296852E+01  0.90000000000E-02 0. -1.
</event>
<event>
 5   0  0.6135700E+09  0.9118800E+02  0.7818608E-02  0.1180000E+00
       11   -1    0    0    0    0  0.00000000000E+00  0.00000000000E+00  0.39999999673E+01  0.40000000000E+01  0.51109989000E-03 0. -1.
     -623   -1    0    0    0    0  0.00000000000E+00  0.00000000000E+00  0.12525980253E-10  0.17130000000E+03  0.17130000000E+03 0. -1.
       11    1    1    2    0    0  0.40201976111E-02 -0.16591726234E-02  0.21410266865E-01  0.21853502936E-01  0.51109989000E-03 0. -1.
     -623    1    1    2    0    0 -0.43349848505E-02  0.20473241975E-02  0.45348314143E-03  0.17130000007E+03  0.17130000000E+03 0. -1.
      622    1    1    2    0    0  0.31478723938E-03 -0.38815157411E-03  0.39781362174E+01  0.39781464294E+01  0.90000000000E-02 0. -1.
</event>
<event>
 5   0  0.6135700E+09  0.9118800E+02  0.7818608E-02  0.1180000E+00
       11   -1    0    0    0    0  0.00000000000E+00  0.00000000000E+00  0.39999999673E+01  0.40000000000E+01  0.51109989000E-03 0.  1.
     -623   -1    0    0    0    0  0.00000000000E+00  0.00000000000E+00  0.12525980253E-10  0.17130000000E+03  0.17130000000E+03 0. -1.
       11    1    1    2    0    0  0.56176380647E-03 -0.39030926126E-02  0.36275214361E+00  0.36277393598E+00  0.51109989000E-03 0.  1.
     -623    1    1    2    0    0 -0.89060162594E-03 -0.22004411927E-03  0.35248918774E-04  0.17130000000E+03  0.17130000000E+03 0. -1.
      622    1    1    2    0    0  0.32883781947E-03  0.41231367319E-02  0.36372125748E+01  0.36372260616E+01  0.90000000000E-02 0.  1.
</event>
<event>
 5   0  0.6135700E+09  0.9118800E+02  0.7818608E-02  0.1180000E+00
       11   -1    0    0    0    0  0.00000000000E+00  0.00000000000E+00  0.39999999673E+01  0.40000000000E+01  0.51109989000E-03 0. -1.
     -623   -1    0    0    0    0  0.00000000000E+00  0.00000000000E+00  0.12525980253E-10  0.17130000000E+03  0.17130000000E+03 0. -1.
       11    1    1    2    0    0  0.82618806634E-03 -0.31623256086E-03  0.22271408627E+00  0.22271642964E+00  0.51109989000E-03 0. -1.
     -623    1    1    2    0    0 -0.43726372951E-04  0.16606157105E-03  0.13116854251E-04  0.17130000000E+03  0.17130000000E+03 0. -1.
      622    1    1    2    0    0 -0.78246169339E-03  0.15017098981E-03  0.37772727642E+01  0.37772835703E+01  0.90000000000E-02 0. -1.
</event>
<event>
 5   0  0.6135700E+09  0.9118800E+02  0.7818608E-02  0.1180000E+00
       11   -1    0    0    0    0  0.00000000000E+00  0.00000000000E+00  0.39999999673E+01  0.40000000000E+01  0.51109989000E-03 0. -1.
     -623   -1    0    0    0    0  0.00000000000E+00  0.00000000000E+00  0.12525980253E-10  0.17130000000E+03  0.17130000000E+03 0. -1.
       11    1    1    2    0    0  0.58060386317E-03  0.32453868470E-03  0.26214535919E+00  0.26214670128E+00  0.51109989000E-03 0. -1.
     -623    1    1    2    0    0 -0.73134194200E-02  0.29572975885E-02  0.19830714943E-04  0.17130000018E+03  0.17130000000E+03 0. -1.
      622    1    1    2    0    0  0.67328155568E-02 -0.32818362732E-02  0.37378347775E+01  0.37378531171E+01  0.90000000000E-02 0.  0.
</event>
<event>
 5   0  0.6135700E+09  0.9118800E+02  0.7818608E-02  0.1180000E+00
       11   -1    0    0    0    0  0.00000000000E+00  0.00000000000E+00  0.39999999673E+01  0.40000000000E+01  0.51109989000E-03 0.  1.
     -623   -1    0    0    0    0  0.00000000000E+00  0.00000000000E+00  0.12525980253E-10  0.17130000000E+03  0.17130000000E+03 0. -1.
       11    1    1    2    0    0  0.16527837402E-02 -0.30270890549E-03  0.48090106813E+00  0.48090427517E+00  0.51109989000E-03 0.  1.
     -623    1    1    2    0    0 -0.84855419984E-03 -0.56734011990E-03  0.14885551765E-04  0.17130000000E+03  0.17130000000E+03 0. -1.
      622    1    1    2    0    0 -0.80422954070E-03  0.87004902518E-03  0.35190840123E+01  0.35190957204E+01  0.90000000000E-02 0.  1.
</event>
<event>
 5   0  0.6135700E+09  0.9118800E+02  0.7818608E-02  0.1180000E+00
       11   -1    0    0    0    0  0.00000000000E+00  0.00000000000E+00  0.39999999673E+01  0.40000000000E+01  0.51109989000E-03 0. -1.
     -623   -1    0    0    0    0  0.00000000000E+00  0.00000000000E+00  0.12525980253E-10  0.17130000000E+03  0.17130000000E+03 0. -1.
       11    1    1    2    0    0 -0.69863116406E-03  0.62924730171E-04  0.70356480799E-02  0.70889782076E-02  0.51109989000E-03 0. -1.
     -623    1    1    2    0    0  0.97223172123E-05 -0.19743212372E-02  0.63968787321E-04  0.17130000001E+03  0.17130000000E+03 0. -1.
      622    1    1    2    0    0  0.68890884682E-03  0.19113965113E-02  0.39929003590E+01  0.39929110189E+01  0.90000000000E-02 0. -1.
</event>
<event>
 5   0  0.6135700E+09  0.9118800E+02  0.7818608E-02  0.1180000E+00
       11   -1    0    0    0    0  0.00000000000E+00  0.00000000000E+00  0.39999999673E+01  0.40000000000E+01  0.51109989000E-03 0. -1.
     -623   -1    0    0    0    0  0.00000000000E+00  0.00000000000E+00  0.12525980253E-10  0.17130000000E+03  0.17130000000E+03 0. -1.
       11    1    1    2    0    0  0.18842915281E-01  0.13566638319E-01  0.27277811539E-01  0.35825261416E-01  0.51109989000E-03 0. -1.
     -623    1    1    2    0    0 -0.17298142532E-01 -0.10601983687E-01  0.85604587027E-02  0.17130000142E+03  0.17130000000E+03 0. -1.
      622    1    1    2    0    0 -0.15447727486E-02 -0.29646546319E-02  0.39641616971E+01  0.39641733232E+01  0.90000000000E-02 0. -1.
</event>
<event>
 5   0  0.6135700E+09  0.9118800E+02  0.7818608E-02  0.1180000E+00
       11   -1    0    0    0    0  0.00000000000E+00  0.00000000000E+00  0.39999999673E+01  0.40000000000E+01  0.51109989000E-03 0. -1.
     -623   -1    0    0    0    0  0.00000000000E+00  0.00000000000E+00  0.12525980253E-10  0.17130000000E+03  0.17130000000E+03 0.  1.
       11    1    1    2    0    0 -0.63545890188E-03 -0.20575038760E-02  0.77322036299E+00  0.77322353049E+00  0.51109989000E-03 0. -1.
     -623    1    1    2    0    0 -0.10116307772E-03  0.93027299154E-04  0.16368234616E-04  0.17130000000E+03  0.17130000000E+03 0.  1.
      622    1    1    2    0    0  0.73662197937E-03  0.19644765771E-02  0.32267632269E+01  0.32267764603E+01  0.90000000000E-02 0. -1.
</event>
<event>
 5   0  0.6135700E+09  0.9118800E+02  0.7818608E-02  0.1180000E+00
       11   -1    0    0    0    0  0.00000000000E+00  0.00000000000E+00  0.39999999673E+01  0.40000000000E+01  0.51109989000E-03 0. -1.
     -623   -1    0    0    0    0  0.00000000000E+00  0.00000000000E+00  0.12525980253E-10  0.17130000000E+03  0.17130000000E+03 0. -1.
       11    1    1    2    0    0 -0.13875655730E-02 -0.69953909071E-03  0.17007460113E-01  0.17085947903E-01  0.51109989000E-03 0. -1.
     -623    1    1    2    0    0  0.24946560019E-02 -0.37956317986E-03  0.88942252219E-04  0.17130000002E+03  0.17130000000E+03 0. -1.
      622    1    1    2    0    0 -0.11070904311E-02  0.10791022709E-02  0.39829035685E+01  0.39829140369E+01  0.90000000000E-02 0. -1.
</event>
<event>
 5   0  0.6135700E+09  0.9118800E+02  0.7818608E-02  0.1180000E+00
       11   -1    0    0    0    0  0.00000000000E+00  0.00000000000E+00  0.39999999673E+01  0.40000000000E+01  0.51109989000E-03 0. -1.
     -623   -1    0    0    0    0  0.00000000000E+00  0.00000000000E+00  0.12525980253E-10  0.17130000000E+03  0.17130000000E+03 0.  1.
       11    1    1    2    0    0  0.14244982697E-02  0.89590758704E-03  0.37166593926E+00  0.37167010032E+00  0.51109989000E-03 0. -1.
     -623    1    1    2    0    0 -0.19872395807E-03  0.17172951304E-03  0.15654931468E-04  0.17130000000E+03  0.17130000000E+03 0.  1.
      622    1    1    2    0    0 -0.12257743117E-02 -0.10676371001E-02  0.36283183732E+01  0.36283298995E+01  0.90000000000E-02 0. -1.
</event>
<event>
 5   0  0.6135700E+09  0.9118800E+02  0.7818608E-02  0.1180000E+00
       11   -1    0    0    0    0  0.00000000000E+00  0.00000000000E+00  0.39999999673E+01  0.40000000000E+01  0.51109989000E-03 0.  1.
     -623   -1    0    0    0    0  0.00000000000E+00  0.00000000000E+00  0.12525980253E-10  0.17130000000E+03  0.17130000000E+03 0. -1.
       11    1    1    2    0    0  0.16449578900E-02  0.36706356141E-03  0.20851640596E+00  0.20852384371E+00  0.51109989000E-03 0.  1.
     -623    1    1    2    0    0 -0.62712998848E-04  0.25307266493E-03  0.18468051837E-04  0.17130000000E+03  0.17130000000E+03 0. -1.
      622    1    1    2    0    0 -0.15822448911E-02 -0.62013622633E-03  0.37914650934E+01  0.37914761561E+01  0.90000000000E-02 0.  1.
</event>
<event>
 5   0  0.6135700E+09  0.9118800E+02  0.7818608E-02  0.1180000E+00
       11   -1    0    0    0    0  0.00000000000E+00  0.00000000000E+00  0.39999999673E+01  0.40000000000E+01  0.51109989000E-03 0. -1.
     -623   -1    0    0    0    0  0.00000000000E+00  0.00000000000E+00  0.12525980253E-10  0.17130000000E+03  0.17130000000E+03 0. -1.
       11    1    1    2    0    0 -0.63302138271E-03 -0.16127199988E-02  0.86736257847E-02  0.88597171754E-02  0.51109989000E-03 0. -1.
     -623    1    1    2    0    0 -0.11325190573E-04  0.11156869027E-02  0.19629294733E-03  0.17130000000E+03  0.17130000000E+03 0. -1.
      622    1    1    2    0    0  0.64434657329E-03  0.49703309607E-03  0.39911300486E+01  0.39911402791E+01  0.90000000000E-02 0. -1.
</event>
<event>
 5   0  0.6135700E+09  0.9118800E+02  0.7818608E-02  0.1180000E+00
       11   -1    0    0    0    0  0.00000000000E+00  0.00000000000E+00  0.39999999673E+01  0.40000000000E+01  0.51109989000E-03 0. -1.
     -623   -1    0    0    0    0  0.00000000000E+00  0.00000000000E+00  0.12525980253E-10  0.17130000000E+03  0.17130000000E+03 0. -1.
       11    1    1    2    0    0  0.20494458006E-02 -0.57671447842E-02  0.30473753928E+00  0.30479942463E+00  0.51109989000E-03 0. -1.
     -623    1    1    2    0    0 -0.32291715335E-02 -0.54917293044E-02  0.90272072570E-04  0.17130000012E+03  0.17130000000E+03 0. -1.
      622    1    1    2    0    0  0.11797257330E-02  0.11258874089E-01  0.36951721560E+01  0.36952004569E+01  0.90000000000E-02 0. -1.
</event>
<event>
 5   0  0.6135700E+09  0.9118800E+02  0.7818608E-02  0.1180000E+00
       11   -1    0    0    0    0  0.00000000000E+00  0.00000000000E+00  0.39999999673E+01  0.40000000000E+01  0.51109989000E-03 0. -1.
     -623   -1    0    0    0    0  0.00000000000E+00  0.00000000000E+00  0.12525980253E-10  0.17130000000E+03  0.17130000000E+03 0.  1.
       11    1    1    2    0    0 -0.43471570102E-03  0.16897117792E-02  0.35332160721E+00  0.35332628468E+00  0.51109989000E-03 0. -1.
     -623    1    1    2    0    0  0.79400966290E-04 -0.20078780229E-04  0.16150414675E-04  0.17130000000E+03  0.17130000000E+03 0.  1.
      622    1    1    2    0    0  0.35531473420E-03 -0.16696329989E-02  0.36466622364E+01  0.36466737420E+01  0.90000000000E-02 0. -1.
</event>
<event>
 5   0  0.6135700E+09  0.9118800E+02  0.7818608E-02  0.1180000E+00
       11   -1    0    0    0    0  0.00000000000E+00  0.00000000000E+00  0.39999999673E+01  0.40000000000E+01  0.51109989000E-03 0.  1.
     -623   -1    0    0    0    0  0.00000000000E+00  0.00000000000E+00  0.12525980253E-10  0.17130000000E+03  0.17130000000E+03 0.  1.
       11    1    1    2    0    0 -0.13868156158E-02  0.29231651351E-02  0.13363022838E+00  0.13367036811E+00  0.51109989000E-03 0.  1.
     -623    1    1    2    0    0  0.53668777718E-04 -0.11551863369E-04  0.51908340792E-04  0.17130000000E+03  0.17130000000E+03 0.  1.
      622    1    1    2    0    0  0.13331468381E-02 -0.29116132718E-02  0.38663178306E+01  0.38663296319E+01  0.90000000000E-02 0.  1.
</event>
<event>
 5   0  0.6135700E+09  0.9118800E+02  0.7818608E-02  0.1180000E+00
       11   -1    0    0    0    0  0.00000000000E+00  0.00000000000E+00  0.39999999673E+01  0.40000000000E+01  0.51109989000E-03 0. -1.
     -623   -1    0    0    0    0  0.00000000000E+00  0.00000000000E+00  0.12525980253E-10  0.17130000000E+03  0.17130000000E+03 0. -1.
       11    1    1    2    0    0  0.60761313114E-03 -0.71881767255E-03  0.53688351353E-01  0.53699033386E-01  0.51109989000E-03 0. -1.
     -623    1    1    2    0    0 -0.10088886273E-03  0.20998246879E-02  0.21199258553E-04  0.17130000001E+03  0.17130000000E+03 0. -1.
      622    1    1    2    0    0 -0.50672426881E-03 -0.13810070069E-02  0.39462904007E+01  0.39463009377E+01  0.90000000000E-02 0. -1.
</event>
<event>
 5   0  0.6135700E+09  0.9118800E+02  0.7818608E-02  0.1180000E+00
       11   -1    0    0    0    0  0.00000000000E+00  0.00000000000E+00  0.39999999673E+01  0.40000000000E+01  0.51109989000E-03 0.  1.
     -623   -1    0    0    0    0  0.00000000000E+00  0.00000000000E+00  0.12525980253E-10  0.17130000000E+03  0.17130000000E+03 0. -1.
       11    1    1    2    0    0  0.44401358977E-03  0.32706027171E-04  0.23492780418E+00  0.23492878201E+00  0.51109989000E-03 0.  1.
     -623    1    1    2    0    0 -0.36214872000E-04  0.33649817085E-03  0.11742496716E-04  0.17130000000E+03  0.17130000000E+03 0. -1.
      622    1    1    2    0    0 -0.40779871777E-03 -0.36920419802E-03  0.37650604207E+01  0.37650712177E+01  0.90000000000E-02 0.  1.
</event>
<event>
 5   0  0.6135700E+09  0.9118800E+02  0.7818608E-02  0.1180000E+00
       11   -1    0    0    0    0  0.00000000000E+00  0.00000000000E+00  0.39999999673E+01  0.40000000000E+01  0.51109989000E-03 0.  1.
     -623   -1    0    0    0    0  0.00000000000E+00  0.00000000000E+00  0.12525980253E-10  0.17130000000E+03  0.17130000000E+03 0. -1.
       11    1    1    2    0    0  0.33738608200E-02 -0.14613984978E-02  0.23631574586E-01  0.23921353702E-01  0.51109989000E-03 0.  1.
     -623    1    1    2    0    0 -0.59561943373E-02  0.79777195572E-02  0.30640032653E-03  0.17130000029E+03  0.17130000000E+03 0. -1.
      622    1    1    2    0    0  0.25823335162E-02 -0.65163210578E-02  0.39760619917E+01  0.39760783559E+01  0.90000000000E-02 0.  1.
</event>
<event>
 5   0  0.6135700E+09  0.9118800E+02  0.7818608E-02  0.1180000E+00
       11   -1    0    0    0    0  0.00000000000E+00  0.00000000000E+00  0.39999999673E+01  0.40000000000E+01  0.51109989000E-03 0.  1.
     -623   -1    0    0    0    0  0.00000000000E+00  0.00000000000E+00  0.12525980253E-10  0.17130000000E+03  0.17130000000E+03 0.  1.
       11    1    1    2    0    0 -0.62270155351E-03  0.17432673007E-03  0.23103735866E-01  0.23118433794E-01  0.51109989000E-03 0.  1.
     -623    1    1    2    0    0  0.61853538141E-04 -0.49213339179E-04  0.24890695373E-04  0.17130000000E+03  0.17130000000E+03 0.  1.
      622    1    1    2    0    0  0.56084801529E-03 -0.12511339083E-03  0.39768713458E+01  0.39768815712E+01  0.90000000000E-02 0.  1.
</event>
<event>
 5   0  0.6135700E+09  0.9118800E+02  0.7818608E-02  0.1180000E+00
       11   -1    0    0    0    0  0.00000000000E+00  0.00000000000E+00  0.39999999673E+01  0.40000000000E+01  0.51109989000E-03 0.  1.
     -623   -1    0    0    0    0  0.00000000000E+00  0.00000000000E+00  0.12525980253E-10  0.17130000000E+03  0.17130000000E+03 0. -1.
       11    1    1    2    0    0 -0.23287381880E-02 -0.54900128899E-04  0.31227666027E-02  0.39292403751E-02  0.51109989000E-03 0.  1.
     -623    1    1    2    0    0  0.11046094292E-02  0.42666185001E-04  0.81676912960E-03  0.17130000001E+03  0.17130000000E+03 0. -1.
      622    1    1    2    0    0  0.12241287589E-02  0.12233943902E-04  0.39960604312E+01  0.39960707537E+01  0.90000000000E-02 0.  1.
</event>
<event>
 5   0  0.6135700E+09  0.9118800E+02  0.7818608E-02  0.1180000E+00
       11   -1    0    0    0    0  0.00000000000E+00  0.00000000000E+00  0.39999999673E+01  0.40000000000E+01  0.51109989000E-03 0.  1.
     -623   -1    0    0    0    0  0.00000000000E+00  0.00000000000E+00  0.12525980253E-10  0.17130000000E+03  0.17130000000E+03 0. -1.
       11    1    1    2    0    0 -0.33744250502E-02  0.65763543819E-02  0.48794346070E+00  0.48799971029E+00  0.51109989000E-03 0.  1.
     -623    1    1    2    0    0 -0.99038143721E-04 -0.49753336886E-04  0.75531043731E-04  0.17130000000E+03  0.17130000000E+03 0. -1.
      622    1    1    2    0    0  0.34734631939E-02 -0.65266010451E-02  0.35119809756E+01  0.35120002897E+01  0.90000000000E-02 0.  1.
</event>
<event>
 5   0  0.6135700E+09  0.9118800E+02  0.7818608E-02  0.1180000E+00
       11   -1    0    0    0    0  0.00000000000E+00  0.00000000000E+00  0.39999999673E+01  0.40000000000E+01  0.51109989000E-03 0. -1.
     -623   -1    0    0    0    0  0.00000000000E+00  0.00000000000E+00  0.12525980253E-10  0.17130000000E+03  0.17130000000E+03 0. -1.
       11    1    1    2    0    0  0.89157216732E-03 -0.14923552085E-02  0.26733508870E+00  0.26734122932E+00  0.51109989000E-03 0. -1.
     -623    1    1    2    0    0 -0.25627063353E-02  0.84908792523E-03  0.17408966066E-04  0.17130000002E+03  0.17130000000E+03 0. -1.
      622    1    1    2    0    0  0.16711341680E-02  0.64326728326E-03  0.37326474697E+01  0.37326587494E+01  0.90000000000E-02 0. -1.
</event>
<event>
 5   0  0.6135700E+09  0.9118800E+02  0.7818608E-02  0.1180000E+00
       11   -1    0    0    0    0  0.00000000000E+00  0.00000000000E+00  0.39999999673E+01  0.40000000000E+01  0.51109989000E-03 0. -1.
     -623   -1    0    0    0    0  0.00000000000E+00  0.00000000000E+00  0.12525980253E-10  0.17130000000E+03  0.17130000000E+03 0. -1.
       11    1    1    2    0    0 -0.16521661304E-03  0.18727064634E-03  0.27320229708E-01  0.27326151188E-01  0.51109989000E-03 0. -1.
     -623    1    1    2    0    0 -0.71320695318E-03  0.31694267848E-03  0.16214391766E-04  0.17130000000E+03  0.17130000000E+03 0. -1.
      622    1    1    2    0    0  0.87842356622E-03 -0.50421332481E-03  0.39726635233E+01  0.39726738470E+01  0.90000000000E-02 0. -1.
</event>
<event>
 5   0  0.6135700E+09  0.9118800E+02  0.7818608E-02  0.1180000E+00
       11   -1    0    0    0    0  0.00000000000E+00  0.00000000000E+00  0.39999999673E+01  0.40000000000E+01  0.51109989000E-03 0.  1.
     -623   -1    0    0    0    0  0.00000000000E+00  0.00000000000E+00  0.12525980253E-10  0.17130000000E+03  0.17130000000E+03 0.  1.
       11    1    1    2    0    0 -0.81735686429E-03  0.60635493151E-03  0.19640352992E-01  0.19673343027E-01  0.51109989000E-03 0.  1.
     -623    1    1    2    0    0 -0.30450369985E-03 -0.45409655753E-03  0.43294341611E-04  0.17130000000E+03  0.17130000000E+03 0.  1.
      622    1    1    2    0    0  0.11218605641E-02 -0.15225837398E-03  0.39803163200E+01  0.39803266561E+01  0.90000000000E-02 0.  1.
</event>
<event>
 5   0  0.6135700E+09  0.9118800E+02  0.7818608E-02  0.1180000E+00
       11   -1    0    0    0    0  0.00000000000E+00  0.00000000000E+00  0.39999999673E+01  0.40000000000E+01  0.51109989000E-03 0.  1.
     -623   -1    0    0    0    0  0.00000000000E+00  0.00000000000E+00  0.12525980253E-10  0.17130000000E+03  0.17130000000E+03 0. -1.
       11    1    1    2    0    0  0.28952451334E-02 -0.64721348260E-04  0.64794502112E+00  0.64795169438E+00  0.51109989000E-03 0.  1.
     -623    1    1    2    0    0  0.45090970957E-04  0.26363945158E-03  0.20018520043E-04  0.17130000000E+03  0.17130000000E+03 0. -1.
      622    1    1    2    0    0 -0.29403361043E-02 -0.19891810289E-03  0.33520349211E+01  0.33520482988E+01  0.90000000000E-02 0.  1.
</event>
<event>
 5   0  0.6135700E+09  0.9118800E+02  0.7818608E-02  0.1180000E+00
       11   -1    0    0    0    0  0.00000000000E+00  0.00000000000E+00  0.39999999673E+01  0.40000000000E+01  0.51109989000E-03 0. -1.
     -623   -1    0    0    0    0  0.00000000000E+00  0.00000000000E+00  0.12525980253E-10  0.17130000000E+03  0.17130000000E+03 0.  1.
       11    1    1    2    0    0  0.36143624243E-02 -0.16782449350E-04  0.49578373365E+00  0.49579717190E+00  0.51109989000E-03 0. -1.
     -623    1    1    2    0    0 -0.43746419180E-04  0.11464924299E-03  0.26783749398E-04  0.17130000000E+03  0.17130000000E+03 0.  1.
      622    1    1    2    0    0 -0.35706160051E-02 -0.97866793636E-04  0.35041894500E+01  0.35042028280E+01  0.90000000000E-02 0.  0.
</event>
<event>
 5   0  0.6135700E+09  0.9118800E+02  0.7818608E-02  0.1180000E+00
       11   -1    0    0    0    0  0.00000000000E+00  0.00000000000E+00  0.39999999673E+01  0.40000000000E+01  0.51109989000E-03 0. -1.
     -623   -1    0    0    0    0  0.00000000000E+00  0.00000000000E+00  0.12525980253E-10  0.17130000000E+03  0.17130000000E+03 0. -1.
       11    1    1    2    0    0  0.36240536129E-04  0.11153590812E-02  0.40108550186E-02  0.41944630567E-02  0.51109989000E-03 0. -1.
     -623    1    1    2    0    0 -0.82646357613E-03  0.32446720845E-03  0.19405099887E-03  0.17130000000E+03  0.17130000000E+03 0. -1.
      622    1    1    2    0    0  0.79022304055E-03 -0.14398262898E-02  0.39957950640E+01  0.39958055372E+01  0.90000000000E-02 0. -1.
</event>
<event>
 5   0  0.6135700E+09  0.9118800E+02  0.7818608E-02  0.1180000E+00
       11   -1    0    0    0    0  0.00000000000E+00  0.00000000000E+00  0.39999999673E+01  0.40000000000E+01  0.51109989000E-03 0. -1.
     -623   -1    0    0    0    0  0.00000000000E+00  0.00000000000E+00  0.12525980253E-10  0.17130000000E+03  0.17130000000E+03 0.  1.
       11    1    1    2    0    0  0.82251883640E-03  0.14456574220E-02  0.47038656710E-01  0.47070828660E-01  0.51109989000E-03 0. -1.
     -623    1    1    2    0    0  0.10112186710E-02 -0.33848375092E-02  0.43322304112E-04  0.17130000004E+03  0.17130000000E+03 0.  1.
      622    1    1    2    0    0 -0.18337375067E-02  0.19391800849E-02  0.39529179855E+01  0.39529291321E+01  0.90000000000E-02 0. -1.
</event>
<event>
 5   0  0.6135700E+09  0.9118800E+02  0.7818608E-02  0.1180000E+00
       11   -1    0    0    0    0  0.00000000000E+00  0.00000000000E+00  0.39999999673E+01  0.40000000000E+01  0.51109989000E-03 0. -1.
     -623   -1    0    0    0    0  0.00000000000E+00  0.00000000000E+00  0.12525980253E-10  0.17130000000E+03  0.17130000000E+03 0.  1.
       11    1    1    2    0    0  0.30059171879E-02 -0.65876385003E-03  0.11011318637E+01  0.11011362822E+01  0.51109989000E-03 0. -1.
     -623    1    1    2    0    0  0.40621129079E-04  0.42254558780E-04  0.20023334155E-04  0.17130000000E+03  0.17130000000E+03 0.  1.
      622    1    1    2    0    0 -0.30465383170E-02  0.61650929132E-03  0.28988480737E+01  0.28988637111E+01  0.90000000000E-02 0. -1.
</event>
<event>
 5   0  0.6135700E+09  0.9118800E+02  0.7818608E-02  0.1180000E+00
       11   -1    0    0    0    0  0.00000000000E+00  0.00000000000E+00  0.39999999673E+01  0.40000000000E+01  0.51109989000E-03 0. -1.
     -623   -1    0    0    0    0  0.00000000000E+00  0.00000000000E+00  0.12525980253E-10  0.17130000000E+03  0.17130000000E+03 0. -1.
       11    1    1    2    0    0  0.53996479932E-03  0.33098592554E-03  0.98449404920E+00  0.98449438558E+00  0.51109989000E-03 0. -1.
     -623    1    1    2    0    0 -0.48324725405E-03 -0.25052287451E-02  0.14537733371E-04  0.17130000002E+03  0.17130000000E+03 0. -1.
      622    1    1    2    0    0 -0.56717543167E-04  0.21742428304E-02  0.30154913978E+01  0.30155056128E+01  0.90000000000E-02 0.  0.
</event>
<event>
 5   0  0.6135700E+09  0.9118800E+02  0.7818608E-02  0.1180000E+00
       11   -1    0    0    0    0  0.00000000000E+00  0.00000000000E+00  0.39999999673E+01  0.40000000000E+01  0.51109989000E-03 0.  1.
     -623   -1    0    0    0    0  0.00000000000E+00  0.00000000000E+00  0.12525980253E-10  0.17130000000E+03  0.17130000000E+03 0. -1.
       11    1    1    2    0    0  0.48862986760E-02 -0.12271428223E-02  0.87171296264E+00  0.87172767092E+00  0.51109989000E-03 0.  1.
     -623    1    1    2    0    0 -0.58312248708E-05  0.71633214588E-04  0.31642606092E-04  0.17130000000E+03  0.17130000000E+03 0. -1.
      622    1    1    2    0    0 -0.48804674511E-02  0.11555096078E-02  0.31282553541E+01  0.31282723210E+01  0.90000000000E-02 0. -1.
</event>
<event>
 5   0  0.6135700E+09  0.9118800E+02  0.7818608E-02  0.1180000E+00
       11   -1    0    0    0    0  0.00000000000E+00  0.00000000000E+00  0.39999999673E+01  0.40000000000E+01  0.51109989000E-03 0. -1.
     -623   -1    0    0    0    0  0.00000000000E+00  0.00000000000E+00  0.12525980253E-10  0.17130000000E+03  0.17130000000E+03 0.  1.
       11    1    1    2    0    0 -0.18251223929E-03 -0.91329941942E-03  0.37230526801E+00  0.37230678377E+00  0.51109989000E-03 0. -1.
     -623    1    1    2    0    0 -0.21944823255E-03  0.75450486151E-03  0.12674799172E-04  0.17130000000E+03  0.17130000000E+03 0.  1.
      622    1    1    2    0    0  0.40196047176E-03  0.15879455818E-03  0.36276820231E+01  0.36276932130E+01  0.90000000000E-02 0. -1.
</event>
<event>
 5   0  0.6135700E+09  0.9118800E+02  0.7818608E-02  0.1180000E+00
       11   -1    0    0    0    0  0.00000000000E+00  0.00000000000E+00  0.39999999673E+01  0.40000000000E+01  0.51109989000E-03 0.  1.
     -623   -1    0    0    0    0  0.00000000000E+00  0.00000000000E+00  0.12525980253E-10  0.17130000000E+03  0.17130000000E+03 0. -1.
       11    1    1    2    0    0 -0.10934450858E-02 -0.14938921795E-02  0.23072288121E+00  0.23073087456E+00  0.51109989000E-03 0.  1.
     -623    1    1    2    0    0  0.20019814837E-03  0.10604107027E-02  0.18839674530E-04  0.17130000000E+03  0.17130000000E+03 0. -1.
      622    1    1    2    0    0  0.89324693740E-03  0.43348147683E-03  0.37692582465E+01  0.37692691220E+01  0.90000000000E-02 0.  0.
</event>
<event>
 5   0  0.6135700E+09  0.9118800E+02  0.7818608E-02  0.1180000E+00
       11   -1    0    0    0    0  0.00000000000E+00  0.00000000000E+00  0.39999999673E+01  0.40000000000E+01  0.51109989000E-03 0. -1.
     -623   -1    0    0    0    0  0.00000000000E+00  0.00000000000E+00  0.12525980253E-10  0.17130000000E+03  0.17130000000E+03 0. -1.
       11    1    1    2    0    0  0.16340676631E-02  0.30466947536E-03  0.10083560689E+01  0.10083575685E+01  0.51109989000E-03 0. -1.
     -623    1    1    2    0    0 -0.29943798557E-03 -0.76716882528E-03  0.15340117482E-04  0.17130000000E+03  0.17130000000E+03 0. -1.
      622    1    1    2    0    0 -0.13346296776E-02  0.46249934992E-03  0.29916285583E+01  0.29916424295E+01  0.90000000000E-02 0. -1.
</event>
<event>
 5   0  0.6135700E+09  0.9118800E+02  0.7818608E-02  0.1180000E+00
       11   -1    0    0    0    0  0.00000000000E+00  0.00000000000E+00  0.39999999673E+01  0.40000000000E+01  0.51109989000E-03 0.  1.
     -623   -1    0    0    0    0  0.00000000000E+00  0.00000000000E+00  0.12525980253E-10  0.17130000000E+03  0.17130000000E+03 0. -1.
       11    1    1    2    0    0  0.28250806707E-03 -0.12887568713E-02  0.15553493770E+00  0.15554137319E+00  0.51109989000E-03 0.  1.
     -623    1    1    2    0    0 -0.39381602325E-04 -0.51437983642E-06  0.17161384200E-04  0.17130000000E+03  0.17130000000E+03 0. -1.
      622    1    1    2    0    0 -0.24312646470E-03  0.12892712511E-02  0.38444478730E+01  0.38444586315E+01  0.90000000000E-02 0.  1.
</event>
<event>
 5   0  0.6135700E+09  0.9118800E+02  0.7818608E-02  0.1180000E+00
       11   -1    0    0    0    0  0.00000000000E+00  0.00000000000E+00  0.39999999673E+01  0.40000000000E+01  0.51109989000E-03 0.  1.
     -623   -1    0    0    0    0  0.00000000000E+00  0.00000000000E+00  0.12525980253E-10  0.17130000000E+03  0.17130000000E+03 0. -1.
       11    1    1    2    0    0  0.10749768136E-02 -0.67988183937E-03  0.18200958883E-01  0.18252505083E-01  0.51109989000E-03 0.  1.
     -623    1    1    2    0    0 -0.12236015891E-02  0.10098469170E-02  0.61708790573E-04  0.17130000001E+03  0.17130000000E+03 0. -1.
      622    1    1    2    0    0  0.14862477546E-03 -0.32996507757E-03  0.39817372996E+01  0.39817474875E+01  0.90000000000E-02 0.  1.
</event>
<event>
 5   0  0.6135700E+09  0.9118800E+02  0.7818608E-02  0.1180000E+00
       11   -1    0    0    0    0  0.00000000000E+00  0.00000000000E+00  0.39999999673E+01  0.40000000000E+01  0.51109989000E-03 0. -1.
     -623   -1    0    0    0    0  0.00000000000E+00  0.00000000000E+00  0.12525980253E-10  0.17130000000E+03  0.17130000000E+03 0.  1.
       11    1    1    2    0    0 -0.61408675280E-02 -0.23470864874E-02  0.23548206643E+00  0.23557437021E+00  0.51109989000E-03 0. -1.
     -623    1    1    2    0    0 -0.49908431110E-03 -0.80761492714E-03  0.11021033550E-03  0.17130000000E+03  0.17130000000E+03 0.  1.
      622    1    1    2    0    0  0.66399518390E-02  0.31547014145E-02  0.37644076902E+01  0.37644256267E+01  0.90000000000E-02 0. -1.
</event>
<event>
 5   0  0.6135700E+09  0.9118800E+02  0.7818608E-02  0.1180000E+00
       11   -1    0    0    0    0  0.00000000000E+00  0.00000000000E+00  0.39999999673E+01  0.40000000000E+01  0.51109989000E-03 0.  1.
     -623   -1    0    0    0    0  0.00000000000E+00  0.00000000000E+00  0.12525980253E-10  0.17130000000E+03  0.17130000000E+03 0.  1.
       11    1    1    2    0    0  0.12981538651E-01  0.37565751191E-02  0.41681183415E+00  0.41703117211E+00  0.51109989000E-03 0.  1.
     -623    1    1    2    0    0 -0.19406966023E-02 -0.16416751633E-02  0.24826318764E-03  0.17130000002E+03  0.17130000000E+03 0.  1.
      622    1    1    2    0    0 -0.11040842048E-01 -0.21148999557E-02  0.35829398700E+01  0.35829688089E+01  0.90000000000E-02 0.  1.
</event>
<event>
 5   0  0.6135700E+09  0.9118800E+02  0.7818608E-02  0.1180000E+00
       11   -1    0    0    0    0  0.00000000000E+00  0.00000000000E+00  0.39999999673E+01  0.40000000000E+01  0.51109989000E-03 0. -1.
     -623   -1    0    0    0    0  0.00000000000E+00  0.00000000000E+00  0.12525980253E-10  0.17130000000E+03  0.17130000000E+03 0. -1.
       11    1    1    2    0    0  0.14730305153E-02  0.30516471593E-02  0.51007791744E+00  0.51008942888E+00  0.51109989000E-03 0. -1.
     -623    1    1    2    0    0  0.70319062461E-04 -0.19965449788E-04  0.24741790169E-04  0.17130000000E+03  0.17130000000E+03 0. -1.
      622    1    1    2    0    0 -0.15433495778E-02 -0.30316817095E-02  0.34898973070E+01  0.34899105700E+01  0.90000000000E-02 0. -1.
</event>
<event>
 5   0  0.6135700E+09  0.9118800E+02  0.7818608E-02  0.1180000E+00
       11   -1    0    0    0    0  0.00000000000E+00  0.00000000000E+00  0.39999999673E+01  0.40000000000E+01  0.51109989000E-03 0. -1.
     -623   -1    0    0    0    0  0.00000000000E+00  0.00000000000E+00  0.12525980253E-10  0.17130000000E+03  0.17130000000E+03 0.  1.
       11    1    1    2    0    0 -0.26189634841E-03 -0.59200845692E-03  0.28612768986E-01  0.28624654336E-01  0.51109989000E-03 0. -1.
     -623    1    1    2    0    0  0.59600808936E-05  0.90689310008E-04  0.22090615480E-04  0.17130000000E+03  0.17130000000E+03 0.  1.
      622    1    1    2    0    0  0.25593626752E-03  0.50131914693E-03  0.39713651068E+01  0.39713753447E+01  0.90000000000E-02 0. -1.
</event>
<event>
 5   0  0.6135700E+09  0.9118800E+02  0.7818608E-02  0.1180000E+00
       11   -1    0    0    0    0  0.00000000000E+00  0.00000000000E+00  0.39999999673E+01  0.40000000000E+01  0.51109989000E-03 0.  1.
     -623   -1    0    0    0    0  0.00000000000E+00  0.00000000000E+00  0.12525980253E-10  0.17130000000E+03  0.17130000000E+03 0. -1.
       11    1    1    2    0    0  0.15455343711E-01 -0.36561546867E-01  0.11889473217E+01  0.11896098559E+01  0.51109989000E-03 0.  1.
     -623    1    1    2    0    0 -0.38542347950E-02  0.27539363053E-01  0.71759777876E-03  0.17130000226E+03  0.17130000000E+03 0. -1.
      622    1    1    2    0    0 -0.11601108916E-01  0.90221838134E-02  0.28103350480E+01  0.28103878856E+01  0.90000000000E-02 0.  0.
</event>
<event>
 5   0  0.6135700E+09  0.9118800E+02  0.7818608E-02  0.1180000E+00
       11   -1    0    0    0    0  0.00000000000E+00  0.00000000000E+00  0.39999999673E+01  0.40000000000E+01  0.51109989000E-03 0. -1.
     -623   -1    0    0    0    0  0.00000000000E+00  0.00000000000E+00  0.12525980253E-10  0.17130000000E+03  0.17130000000E+03 0.  1.
       11    1    1    2    0    0  0.80742938694E-03 -0.15020547738E-02  0.50844462932E+00  0.50844774600E+00  0.51109989000E-03 0. -1.
     -623    1    1    2    0    0 -0.13513309260E-02 -0.65573208970E-03  0.15399199012E-04  0.17130000001E+03  0.17130000000E+03 0.  1.
      622    1    1    2    0    0  0.54390153907E-03  0.21577868635E-02  0.34915399388E+01  0.34915522474E+01  0.90000000000E-02 0. -1.
</event>
<event>
 5   0  0.6135700E+09  0.9118800E+02  0.7818608E-02  0.1180000E+00
       11   -1    0    0    0    0  0.00000000000E+00  0.00000000000E+00  0.39999999673E+01  0.40000000000E+01  0.51109989000E-03 0.  1.
     -623   -1    0    0    0    0  0.00000000000E+00  0.00000000000E+00  0.12525980253E-10  0.17130000000E+03  0.17130000000E+03 0. -1.
       11    1    1    2    0    0 -0.46336262666E-04 -0.18677017957E-03  0.56302165173E-02  0.56566413426E-02  0.51109989000E-03 0.  1.
     -623    1    1    2    0    0 -0.57700940782E-04 -0.16183484980E-03  0.36548193849E-04  0.17130000000E+03  0.17130000000E+03 0. -1.
      622    1    1    2    0    0  0.10403720346E-03  0.34860502939E-03  0.39943332032E+01  0.39943433591E+01  0.90000000000E-02 0.  1.
</event>
<event>
 5   0  0.6135700E+09  0.9118800E+02  0.7818608E-02  0.1180000E+00
       11   -1    0    0    0    0  0.00000000000E+00  0.00000000000E+00  0.39999999673E+01  0.40000000000E+01  0.51109989000E-03 0.  1.
     -623   -1    0    0    0    0  0.00000000000E+00  0.00000000000E+00  0.12525980253E-10  0.17130000000E+03  0.17130000000E+03 0.  1.
       11    1    1    2    0    0  0.25467279774E-02  0.15722881389E-02  0.17874560157E+00  0.17877138814E+00  0.51109989000E-03 0.  1.
     -623    1    1    2    0    0 -0.17211825828E-02 -0.36354710772E-02  0.37046019185E-04  0.17130000005E+03  0.17130000000E+03 0.  1.
      622    1    1    2    0    0 -0.82554539222E-03  0.20631829433E-02  0.38212173253E+01  0.38212285701E+01  0.90000000000E-02 0.  1.
</event>
<event>
 5   0  0.6135700E+09  0.9118800E+02  0.7818608E-02  0.1180000E+00
       11   -1    0    0    0    0  0.00000000000E+00  0.00000000000E+00  0.39999999673E+01  0.40000000000E+01  0.51109989000E-03 0. -1.
     -623   -1    0    0    0    0  0.00000000000E+00  0.00000000000E+00  0.12525980253E-10  0.17130000000E+03  0.17130000000E+03 0. -1.
       11    1    1    2    0    0 -0.83879244784E-03  0.13448229509E-02  0.65030449656E-01  0.65051769593E-01  0.51109989000E-03 0. -1.
     -623    1    1    2    0    0  0.14731729644E-02  0.59561720351E-03  0.32116649604E-04  0.17130000001E+03  0.17130000000E+03 0. -1.
      622    1    1    2    0    0 -0.63438051664E-03 -0.19404401544E-02  0.39349374013E+01  0.39349482233E+01  0.90000000000E-02 0. -1.
</event>
<event>
 5   0  0.6135700E+09  0.9118800E+02  0.7818608E-02  0.1180000E+00
       11   -1    0    0    0    0  0.00000000000E+00  0.00000000000E+00  0.39999999673E+01  0.40000000000E+01  0.51109989000E-03 0. -1.
     -623   -1    0    0    0    0  0.00000000000E+00  0.00000000000E+00  0.12525980253E-10  0.17130000000E+03  0.17130000000E+03 0. -1.
       11    1    1    2    0    0  0.18060753696E-01  0.42289890912E-02  0.69275399192E+00  0.69300247454E+00  0.51109989000E-03 0. -1.
     -623    1    1    2    0    0 -0.24638486572E-02  0.10315360363E-02  0.30168238904E-03  0.17130000002E+03  0.17130000000E+03 0. -1.
      622    1    1    2    0    0 -0.15596905039E-01 -0.52605251275E-02  0.33069442929E+01  0.33069975042E+01  0.90000000000E-02 0. -1.
</event>
<event>
 5   0  0.6135700E+09  0.9118800E+02  0.7818608E-02  0.1180000E+00
       11   -1    0    0    0    0  0.00000000000E+00  0.00000000000E+00  0.39999999673E+01  0.40000000000E+01  0.51109989000E-03 0.  1.
     -623   -1    0    0    0    0  0.00000000000E+00  0.00000000000E+00  0.12525980253E-10  0.17130000000E+03  0.17130000000E+03 0. -1.
       11    1    1    2    0    0 -0.93761058293E-03  0.96575888752E-02  0.86123052305E+00  0.86128533204E+00  0.51109989000E-03 0.  1.
     -623    1    1    2    0    0  0.38948442700E-03  0.56841417371E-03  0.84387405092E-04  0.17130000000E+03  0.17130000000E+03 0. -1.
      622    1    1    2    0    0  0.54812615578E-03 -0.10226003049E-01  0.31386850584E+01  0.31387146681E+01  0.90000000000E-02 0.  1.
</event>
<event>
 5   0  0.6135700E+09  0.9118800E+02  0.7818608E-02  0.1180000E+00
       11   -1    0    0    0    0  0.00000000000E+00  0.00000000000E+00  0.39999999673E+01  0.40000000000E+01  0.51109989000E-03 0. -1.
     -623   -1    0    0    0    0  0.00000000000E+00  0.00000000000E+00  0.12525980253E-10  0.17130000000E+03  0.17130000000E+03 0.  1.
       11    1    1    2    0    0 -0.30074814709E-03  0.68967141618E-03  0.78531722941E-02  0.79056710207E-02  0.51109989000E-03 0. -1.
     -623    1    1    2    0    0  0.84515687631E-03 -0.79189748079E-03  0.62653506904E-04  0.17130000000E+03  0.17130000000E+03 0.  1.
      622    1    1    2    0    0 -0.54440873070E-03  0.10222606599E-03  0.39920841485E+01  0.39920943320E+01  0.90000000000E-02 0. -1.
</event>
<event>
 5   0  0.6135700E+09  0.9118800E+02  0.7818608E-02  0.1180000E+00
       11   -1    0    0    0    0  0.00000000000E+00  0.00000000000E+00  0.39999999673E+01  0.40000000000E+01  0.51109989000E-03 0.  1.
     -623   -1    0    0    0    0  0.00000000000E+00  0.00000000000E+00  0.12525980253E-10  0.17130000000E+03  0.17130000000E+03 0. -1.
       11    1    1    2    0    0 -0.10781679957E-02  0.22250299776E-03  0.36138522524E-01  0.36158899142E-01  0.51109989000E-03 0.  1.
     -623    1    1    2    0    0  0.34471392714E-03 -0.10291705368E-02  0.30714733093E-04  0.17130000000E+03  0.17130000000E+03 0. -1.
      622    1    1    2    0    0  0.73345406797E-03  0.80666754071E-03  0.39638307367E+01  0.39638411040E+01  0.90000000000E-02 0.  1.
</event>
<event>
 5   0  0.6135700E+09  0.9118800E+02  0.7818608E-02  0.1180000E+00
       11   -1    0    0    0    0  0.00000000000E+00  0.00000000000E+00  0.39999999673E+01  0.40000000000E+01  0.51109989000E-03 0.  1.
     -623   -1    0    0    0    0  0.00000000000E+00  0.00000000000E+00  0.12525980253E-10  0.17130000000E+03  0.17130000000E+03 0.  1.
       11    1    1    2    0    0  0.23362756595E-04 -0.29003103029E-03  0.19622022419E-01  0.19630834184E-01  0.51109989000E-03 0.  1.
     -623    1    1    2    0    0 -0.94084650397E-04  0.11763526876E-03  0.18958501472E-04  0.17130000000E+03  0.17130000000E+03 0.  1.
      622    1    1    2    0    0  0.70721894172E-04  0.17239576106E-03  0.39803590021E+01  0.39803691815E+01  0.90000000000E-02 0.  1.
</event>
<event>
 5   0  0.6135700E+09  0.9118800E+02  0.7818608E-02  0.1180000E+00
       11   -1    0    0    0    0  0.00000000000E+00  0.00000000000E+00  0.39999999673E+01  0.40000000000E+01  0.51109989000E-03 0. -1.
     -623   -1    0    0    0    0  0.00000000000E+00  0.00000000000E+00  0.12525980253E-10  0.17130000000E+03  0.17130000000E+03 0. -1.
       11    1    1    2    0    0  0.45212253765E-03 -0.12089000929E-03  0.11142743607E+00  0.11142959105E+00  0.51109989000E-03 0. -1.
     -623    1    1    2    0    0 -0.23448899831E-04 -0.88379574275E-04  0.12566776247E-04  0.17130000000E+03  0.17130000000E+03 0. -1.
      622    1    1    2    0    0 -0.42867363788E-03  0.20926958333E-03  0.38885599538E+01  0.38885703982E+01  0.90000000000E-02 0. -1.
</event>
<event>
 5   0  0.6135700E+09  0.9118800E+02  0.7818608E-02  0.1180000E+00
       11   -1    0    0    0    0  0.00000000000E+00  0.00000000000E+00  0.39999999673E+01  0.40000000000E+01  0.51109989000E-03 0.  1.
     -623   -1    0    0    0    0  0.00000000000E+00  0.00000000000E+00  0.12525980253E-10  0.17130000000E+03  0.17130000000E+03 0.  1.
       11    1    1    2    0    0  0.35061351337E-02 -0.75370060575E-03  0.36074649642E+00  0.36076468363E+00  0.51109989000E-03 0.  1.
     -623    1    1    2    0    0 -0.21859786570E-02  0.14087990896E-02  0.29601444033E-04  0.17130000002E+03  0.17130000000E+03 0.  1.
      622    1    1    2    0    0 -0.13201564767E-02 -0.65509848388E-03  0.36392238695E+01  0.36392352966E+01  0.90000000000E-02 0.  1.
</event>
<event>
 5   0  0.6135700E+09  0.9118800E+02  0.7818608E-02  0.1180000E+00
       11   -1    0    0    0    0  0.00000000000E+00  0.00000000000E+00  0.39999999673E+01  0.40000000000E+01  0.51109989000E-03 0.  1.
     -623   -1    0    0    0    0  0.00000000000E+00  0.00000000000E+00  0.12525980253E-10  0.17130000000E+03  0.17130000000E+03 0. -1.
       11    1    1    2    0    0  0.61276219875E-03 -0.20722195389E-02  0.99219758958E-01  0.99244603693E-01  0.51109989000E-03 0.  1.
     -623    1    1    2    0    0  0.38632839330E-03  0.50530733106E-03  0.35638555797E-04  0.17130000000E+03  0.17130000000E+03 0. -1.
      622    1    1    2    0    0 -0.99909059271E-03  0.15669122070E-02  0.39007445767E+01  0.39007554019E+01  0.90000000000E-02 0.  1.
</event>
<event>
 5   0  0.6135700E+09  0.9118800E+02  0.7818608E-02  0.1180000E+00
       11   -1    0    0    0    0  0.00000000000E+00  0.00000000000E+00  0.39999999673E+01  0.40000000000E+01  0.51109989000E-03 0. -1.
     -623   -1    0    0    0    0  0.00000000000E+00  0.00000000000E+00  0.12525980253E-10  0.17130000000E+03  0.17130000000E+03 0.  1.
       11    1    1    2    0    0  0.47704191861E-04 -0.36504744630E-03  0.90062383875E-01  0.90064586523E-01  0.51109989000E-03 0. -1.
     -623    1    1    2    0    0 -0.84085573733E-04 -0.80239668567E-05  0.12546237321E-04  0.17130000000E+03  0.17130000000E+03 0.  1.
      622    1    1    2    0    0  0.36381381873E-04  0.37307141316E-03  0.39099250372E+01  0.39099354135E+01  0.90000000000E-02 0. -1.
</event>
<event>
 5   0  0.6135700E+09  0.9118800E+02  0.7818608E-02  0.1180000E+00
       11   -1    0    0    0    0  0.00000000000E+00  0.00000000000E+00  0.39999999673E+01  0.40000000000E+01  0.51109989000E-03 0.  1.
     -623   -1    0    0    0    0  0.00000000000E+00  0.00000000000E+00  0.12525980253E-10  0.17130000000E+03  0.17130000000E+03 0. -1.
       11    1    1    2    0    0 -0.10945103867E-02  0.41957115255E-02  0.44086011197E+00  0.44088173187E+00  0.51109989000E-03 0.  1.
     -623    1    1    2    0    0  0.63698824153E-04 -0.12535537810E-04  0.35574129116E-04  0.17130000000E+03  0.17130000000E+03 0. -1.
      622    1    1    2    0    0  0.10308115626E-02 -0.41831759876E-02  0.35591042813E+01  0.35591182681E+01  0.90000000000E-02 0.  1.
</event>
<event>
 5   0  0.6135700E+09  0.9118800E+02  0.7818608E-02  0.1180000E+00
       11   -1    0    0    0    0  0.00000000000E+00  0.00000000000E+00  0.39999999673E+01  0.40000000000E+01  0.51109989000E-03 0.  1.
     -623   -1    0    0    0    0  0.00000000000E+00  0.00000000000E+00  0.12525980253E-10  0.17130000000E+03  0.17130000000E+03 0. -1.
       11    1    1    2    0    0  0.33105503748E-02 -0.35509452767E-02  0.47653487322E+00  0.47655987617E+00  0.51109989000E-03 0.  1.
     -623    1    1    2    0    0  0.67395778591E-04  0.38839774588E-03  0.39503784915E-04  0.17130000000E+03  0.17130000000E+03 0. -1.
      622    1    1    2    0    0 -0.33779461535E-02  0.31625475306E-02  0.35234255929E+01  0.35234401259E+01  0.90000000000E-02 0.  1.
</event>
<event>
 5   0  0.6135700E+09  0.9118800E+02  0.7818608E-02  0.1180000E+00
       11   -1    0    0    0    0  0.00000000000E+00  0.00000000000E+00  0.39999999673E+01  0.40000000000E+01  0.51109989000E-03 0. -1.
     -623   -1    0    0    0    0  0.00000000000E+00  0.00000000000E+00  0.12525980253E-10  0.17130000000E+03  0.17130000000E+03 0. -1.
       11    1    1    2    0    0 -0.16484534138E-02 -0.71291006641E-03  0.85127230218E+00  0.85127435021E+00  0.51109989000E-03 0. -1.
     -623    1    1    2    0    0  0.16356545673E-03 -0.24531829919E-03  0.15373944775E-04  0.17130000000E+03  0.17130000000E+03 0. -1.
      622    1    1    2    0    0  0.14848879571E-02  0.95822836560E-03  0.31487122912E+01  0.31487256495E+01  0.90000000000E-02 0. -1.
</event>
<event>
 5   0  0.6135700E+09  0.9118800E+02  0.7818608E-02  0.1180000E+00
       11   -1    0    0    0    0  0.00000000000E+00  0.00000000000E+00  0.39999999673E+01  0.40000000000E+01  0.51109989000E-03 0.  1.
     -623   -1    0    0    0    0  0.00000000000E+00  0.00000000000E+00  0.12525980253E-10  0.17130000000E+03  0.17130000000E+03 0.  1.
       11    1    1    2    0    0 -0.10773929922E-02 -0.53746909774E-03  0.13934681112E+00  0.13935294988E+00  0.51109989000E-03 0.  1.
     -623    1    1    2    0    0 -0.14278208982E-03  0.39105021397E-05  0.16826348877E-04  0.17130000000E+03  0.17130000000E+03 0.  1.
      622    1    1    2    0    0  0.12201750820E-02  0.53355859560E-03  0.38606363299E+01  0.38606470501E+01  0.90000000000E-02 0.  1.
</event>
<event>
 5   0  0.6135700E+09  0.9118800E+02  0.7818608E-02  0.1180000E+00
       11   -1    0    0    0    0  0.00000000000E+00  0.00000000000E+00  0.39999999673E+01  0.40000000000E+01  0.51109989000E-03 0. -1.
     -623   -1    0    0    0    0  0.00000000000E+00  0.00000000000E+00  0.12525980253E-10  0.17130000000E+03  0.17130000000E+03 0. -1.
       11    1    1    2    0    0  0.52142590876E-03 -0.11556942772E-02  0.85632928508E-01  0.85643839127E-01  0.51109989000E-03 0. -1.
     -623    1    1    2    0    0 -0.90681505171E-03  0.10523599293E-02  0.21250491475E-04  0.17130000001E+03  0.17130000000E+03 0. -1.
      622    1    1    2    0    0  0.38538914294E-03  0.10333434793E-03  0.39143457884E+01  0.39143561552E+01  0.90000000000E-02 0. -1.
</event>
<event>
 5   0  0.6135700E+09  0.9118800E+02  0.7818608E-02  0.1180000E+00
       11   -1    0    0    0    0  0.00000000000E+00  0.00000000000E+00  0.39999999673E+01  0.40000000000E+01  0.51109989000E-03 0. -1.
     -623   -1    0    0    0    0  0.00000000000E+00  0.00000000000E+00  0.12525980253E-10  0.17130000000E+03  0.17130000000E+03 0. -1.
       11    1    1    2    0    0  0.10315011693E-03  0.69108214173E-03  0.63245823479E+00  0.63245882729E+00  0.51109989000E-03 0. -1.
     -623    1    1    2    0    0  0.59200820960E-03  0.13965838132E-02  0.13312034804E-04  0.17130000001E+03  0.17130000000E+03 0. -1.
      622    1    1    2    0    0 -0.69515832653E-03 -0.20876659550E-02  0.33675284205E+01  0.33675411660E+01  0.90000000000E-02 0. -1.
</event>
<event>
 5   0  0.6135700E+09  0.9118800E+02  0.7818608E-02  0.1180000E+00
       11   -1    0    0    0    0  0.00000000000E+00  0.00000000000E+00  0.39999999673E+01  0.40000000000E+01  0.51109989000E-03 0.  1.
     -623   -1    0    0    0    0  0.00000000000E+00  0.00000000000E+00  0.12525980253E-10  0.17130000000E+03  0.17130000000E+03 0. -1.
       11    1    1    2    0    0  0.85760686754E-03  0.28792491536E-03  0.35363375907E+00  0.35363528553E+00  0.51109989000E-03 0.  1.
     -623    1    1    2    0    0 -0.34149178573E-04  0.25587916517E-04  0.12707247523E-04  0.17130000000E+03  0.17130000000E+03 0. -1.
      622    1    1    2    0    0 -0.82345768888E-03 -0.31351283195E-03  0.36463535121E+01  0.36463647256E+01  0.90000000000E-02 0.  1.
</event>
<event>
 5   0  0.6135700E+09  0.9118800E+02  0.7818608E-02  0.1180000E+00
       11   -1    0    0    0    0  0.00000000000E+00  0.00000000000E+00  0.39999999673E+01  0.40000000000E+01  0.51109989000E-03 0. -1.
     -623   -1    0    0    0    0  0.00000000000E+00  0.00000000000E+00  0.12525980253E-10  0.17130000000E+03  0.17130000000E+03 0.  1.
       11    1    1    2    0    0  0.81517963878E-03 -0.87060934954E-04  0.92055229917E-01  0.92060299120E-01  0.51109989000E-03 0. -1.
     -623    1    1    2    0    0 -0.26809994309E-03  0.75608675369E-03  0.15497533416E-04  0.17130000000E+03  0.17130000000E+03 0.  1.
      622    1    1    2    0    0 -0.54707969569E-03 -0.66902581873E-03  0.39079292399E+01  0.39079396990E+01  0.90000000000E-02 0. -1.
</event>
<event>
 5   0  0.6135700E+09  0.9118800E+02  0.7818608E-02  0.1180000E+00
       11   -1    0    0    0    0  0.00000000000E+00  0.00000000000E+00  0.39999999673E+01  0.40000000000E+01  0.51109989000E-03 0. -1.
     -623   -1    0    0    0    0  0.00000000000E+00  0.00000000000E+00  0.12525980253E-10  0.17130000000E+03  0.17130000000E+03 0.  1.
       11    1    1    2    0    0  0.32692081515E-02 -0.11227665744E-02  0.52708296716E+00  0.52709454922E+00  0.51109989000E-03 0.  1.
     -623    1    1    2    0    0 -0.80345362697E-04 -0.94926929191E-04  0.24888703856E-04  0.17130000000E+03  0.17130000000E+03 0.  1.
      622    1    1    2    0    0 -0.31888627887E-02  0.12176935037E-02  0.34728921165E+01  0.34729054557E+01  0.90000000000E-02 0. -1.
</event>
<event>
 5   0  0.6135700E+09  0.9118800E+02  0.7818608E-02  0.1180000E+00
       11   -1    0    0    0    0  0.00000000000E+00  0.00000000000E+00  0.39999999673E+01  0.40000000000E+01  0.51109989000E-03 0. -1.
     -623   -1    0    0    0    0  0.00000000000E+00  0.00000000000E+00  0.12525980253E-10  0.17130000000E+03  0.17130000000E+03 0. -1.
       11    1    1    2    0    0  0.39820519075E-03 -0.73076226572E-03  0.16205669766E-01  0.16235071189E-01  0.51109989000E-03 0.  1.
     -623    1    1    2    0    0  0.11638498603E-03 -0.16068351055E-03  0.39668153053E-04  0.17130000000E+03  0.17130000000E+03 0. -1.
      622    1    1    2    0    0 -0.51459017699E-03  0.89144577655E-03  0.39837546365E+01  0.39837649357E+01  0.90000000000E-02 0. -1.
</event>
<event>
 5   0  0.6135700E+09  0.9118800E+02  0.7818608E-02  0.1180000E+00
       11   -1    0    0    0    0  0.00000000000E+00  0.00000000000E+00  0.39999999673E+01  0.40000000000E+01  0.51109989000E-03 0.  1.
     -623   -1    0    0    0    0  0.00000000000E+00  0.00000000000E+00  0.12525980253E-10  0.17130000000E+03  0.17130000000E+03 0.  1.
       11    1    1    2    0    0  0.60686710133E-02  0.71056262916E-02  0.41028927442E+00  0.41039599001E+00  0.51109989000E-03 0.  1.
     -623    1    1    2    0    0 -0.16135501547E-02 -0.64423639519E-02  0.12092028790E-03  0.17130000013E+03  0.17130000000E+03 0.  1.
      622    1    1    2    0    0 -0.44551208586E-02 -0.66326233963E-03  0.35895897727E+01  0.35896038812E+01  0.90000000000E-02 0.  1.
</event>
<event>
 5   0  0.6135700E+09  0.9118800E+02  0.7818608E-02  0.1180000E+00
       11   -1    0    0    0    0  0.00000000000E+00  0.00000000000E+00  0.39999999673E+01  0.40000000000E+01  0.51109989000E-03 0. -1.
     -623   -1    0    0    0    0  0.00000000000E+00  0.00000000000E+00  0.12525980253E-10  0.17130000000E+03  0.17130000000E+03 0. -1.
       11    1    1    2    0    0 -0.19791321101E-02 -0.17730725287E-02  0.20448691862E+00  0.20450482111E+00  0.51109989000E-03 0. -1.
     -623    1    1    2    0    0  0.10377675464E-02 -0.41278085225E-03  0.29290218827E-04  0.17130000000E+03  0.17130000000E+03 0. -1.
      622    1    1    2    0    0  0.94136456377E-03  0.21858533810E-02  0.37954837585E+01  0.37954951752E+01  0.90000000000E-02 0. -1.
</event>
<event>
 5   0  0.6135700E+09  0.9118800E+02  0.7818608E-02  0.1180000E+00
       11   -1    0    0    0    0  0.00000000000E+00  0.00000000000E+00  0.39999999673E+01  0.40000000000E+01  0.51109989000E-03 0.  1.
     -623   -1    0    0    0    0  0.00000000000E+00  0.00000000000E+00  0.12525980253E-10  0.17130000000E+03  0.17130000000E+03 0. -1.
       11    1    1    2    0    0  0.27218584464E-02 -0.39644973553E-02  0.33710636176E+00  0.33714104780E+00  0.51109989000E-03 0.  1.
     -623    1    1    2    0    0 -0.59512600019E-02  0.33718023149E-02  0.47318501338E-04  0.17130000014E+03  0.17130000000E+03 0. -1.
      622    1    1    2    0    0  0.32294015555E-02  0.59269504043E-03  0.36628462871E+01  0.36628588156E+01  0.90000000000E-02 0.  1.
</event>
<event>
 5   0  0.6135700E+09  0.9118800E+02  0.7818608E-02  0.1180000E+00
       11   -1    0    0    0    0  0.00000000000E+00  0.00000000000E+00  0.39999999673E+01  0.40000000000E+01  0.51109989000E-03 0.  1.
     -623   -1    0    0    0    0  0.00000000000E+00  0.00000000000E+00  0.12525980253E-10  0.17130000000E+03  0.17130000000E+03 0.  1.
       11    1    1    2    0    0 -0.63142873084E-03 -0.19956381166E-02  0.31315930266E+00  0.31316671493E+00  0.51109989000E-03 0.  1.
     -623    1    1    2    0    0 -0.25240579829E-03 -0.69863200769E-04  0.19049406794E-04  0.17130000000E+03  0.17130000000E+03 0.  1.
      622    1    1    2    0    0  0.88383452913E-03  0.20655013174E-02  0.36868216153E+01  0.36868332849E+01  0.90000000000E-02 0.  1.
</event>
<event>
 5   0  0.6135700E+09  0.9118800E+02  0.7818608E-02  0.1180000E+00
       11   -1    0    0    0    0  0.00000000000E+00  0.00000000000E+00  0.39999999673E+01  0.40000000000E+01  0.51109989000E-03 0.  1.
     -623   -1    0    0    0    0  0.00000000000E+00  0.00000000000E+00  0.12525980253E-10  0.17130000000E+03  0.17130000000E+03 0. -1.
       11    1    1    2    0    0 -0.93428067710E-03  0.52676155789E-03  0.18617570446E+00  0.18617949542E+00  0.51109989000E-03 0.  1.
     -623    1    1    2    0    0  0.21894010002E-03 -0.49252900748E-03  0.14445689891E-04  0.17130000000E+03  0.17130000000E+03 0. -1.
      622    1    1    2    0    0  0.71534057810E-03 -0.34232552692E-04  0.38138097986E+01  0.38138204852E+01  0.90000000000E-02 0.  1.
</event>
<event>
 5   0  0.6135700E+09  0.9118800E+02  0.7818608E-02  0.1180000E+00
       11   -1    0    0    0    0  0.00000000000E+00  0.00000000000E+00  0.39999999673E+01  0.40000000000E+01  0.51109989000E-03 0. -1.
     -623   -1    0    0    0    0  0.00000000000E+00  0.00000000000E+00  0.12525980253E-10  0.17130000000E+03  0.17130000000E+03 0. -1.
       11    1    1    2    0    0 -0.40470822313E-02  0.13191902864E-02  0.33314069300E+00  0.33316827834E+00  0.51109989000E-03 0. -1.
     -623    1    1    2    0    0  0.27214132438E-03 -0.28286274915E-02  0.40875050603E-04  0.17130000002E+03  0.17130000000E+03 0. -1.
      622    1    1    2    0    0  0.37749409070E-02  0.15094372051E-02  0.36668183993E+01  0.36668316981E+01  0.90000000000E-02 0. -1.
</event>
<event>
 5   0  0.6135700E+09  0.9118800E+02  0.7818608E-02  0.1180000E+00
       11   -1    0    0    0    0  0.00000000000E+00  0.00000000000E+00  0.39999999673E+01  0.40000000000E+01  0.51109989000E-03 0.  1.
     -623   -1    0    0    0    0  0.00000000000E+00  0.00000000000E+00  0.12525980253E-10  0.17130000000E+03  0.17130000000E+03 0. -1.
       11    1    1    2    0    0  0.31380697001E-02  0.24271695110E-02  0.63874218827E+00  0.63875471265E+00  0.51109989000E-03 0.  1.
     -623    1    1    2    0    0 -0.47052740144E-03  0.43054091416E-04  0.26507731532E-04  0.17130000000E+03  0.17130000000E+03 0. -1.
      622    1    1    2    0    0 -0.26675422987E-02 -0.24702236024E-02  0.33612312714E+01  0.33612452867E+01  0.90000000000E-02 0.  1.
</event>
<event>
 5   0  0.6135700E+09  0.9118800E+02  0.7818608E-02  0.1180000E+00
       11   -1    0    0    0    0  0.00000000000E+00  0.00000000000E+00  0.39999999673E+01  0.40000000000E+01  0.51109989000E-03 0.  1.
     -623   -1    0    0    0    0  0.00000000000E+00  0.00000000000E+00  0.12525980253E-10  0.17130000000E+03  0.17130000000E+03 0.  1.
       11    1    1    2    0    0 -0.19244853691E-02  0.18791384482E-02  0.11002574298E+00  0.11005980259E+00  0.51109989000E-03 0. -1.
     -623    1    1    2    0    0 -0.26644465221E-03  0.13288910813E-03  0.45576072876E-04  0.17130000000E+03  0.17130000000E+03 0.  1.
      622    1    1    2    0    0  0.21909300216E-02 -0.20120275564E-02  0.38899286521E+01  0.38899402009E+01  0.90000000000E-02 0.  1.
</event>
<event>
 5   0  0.6135700E+09  0.9118800E+02  0.7818608E-02  0.1180000E+00
       11   -1    0    0    0    0  0.00000000000E+00  0.00000000000E+00  0.39999999673E+01  0.40000000000E+01  0.51109989000E-03 0.  1.
     -623   -1    0    0    0    0  0.00000000000E+00  0.00000000000E+00  0.12525980253E-10  0.17130000000E+03  0.17130000000E+03 0.  1.
       11    1    1    2    0    0  0.13126644555E-02 -0.31901858066E-02  0.20427213364E+00  0.20430189959E+00  0.51109989000E-03 0.  1.
     -623    1    1    2    0    0 -0.20927845872E-03  0.20318987898E-03  0.41739229585E-04  0.17130000000E+03  0.17130000000E+03 0.  1.
      622    1    1    2    0    0 -0.11033859968E-02  0.29869959276E-02  0.37956860945E+01  0.37956981002E+01  0.90000000000E-02 0.  1.
</event>
<event>
 5   0  0.6135700E+09  0.9118800E+02  0.7818608E-02  0.1180000E+00
       11   -1    0    0    0    0  0.00000000000E+00  0.00000000000E+00  0.39999999673E+01  0.40000000000E+01  0.51109989000E-03 0.  1.
     -623   -1    0    0    0    0  0.00000000000E+00  0.00000000000E+00  0.12525980253E-10  0.17130000000E+03  0.17130000000E+03 0.  1.
       11    1    1    2    0    0 -0.27347795926E-03  0.11213105843E-02  0.29040000506E-01  0.29067421238E-01  0.51109989000E-03 0.  1.
     -623    1    1    2    0    0  0.16200893251E-02 -0.56164661773E-03  0.37863576826E-04  0.17130000001E+03  0.17130000000E+03 0.  1.
      622    1    1    2    0    0 -0.13466113658E-02 -0.55966396656E-03  0.39709221033E+01  0.39709325702E+01  0.90000000000E-02 0.  1.
</event>
<event>
 5   0  0.6135700E+09  0.9118800E+02  0.7818608E-02  0.1180000E+00
       11   -1    0    0    0    0  0.00000000000E+00  0.00000000000E+00  0.39999999673E+01  0.40000000000E+01  0.51109989000E-03 0.  1.
     -623   -1    0    0    0    0  0.00000000000E+00  0.00000000000E+00  0.12525980253E-10  0.17130000000E+03  0.17130000000E+03 0.  1.
       11    1    1    2    0    0  0.98646331521E-02  0.92420016040E-03  0.11455448052E+01  0.11455877649E+01  0.51109989000E-03 0.  1.
     -623    1    1    2    0    0 -0.34530660653E-02 -0.37305171948E-02  0.65771475225E-04  0.17130000008E+03  0.17130000000E+03 0.  1.
      622    1    1    2    0    0 -0.64115670833E-02  0.28063170381E-02  0.28543893947E+01  0.28544121637E+01  0.90000000000E-02 0.  1.
</event>
<event>
 5   0  0.6135700E+09  0.9118800E+02  0.7818608E-02  0.1180000E+00
       11   -1    0    0    0    0  0.00000000000E+00  0.00000000000E+00  0.39999999673E+01  0.40000000000E+01  0.51109989000E-03 0. -1.
     -623   -1    0    0    0    0  0.00000000000E+00  0.00000000000E+00  0.12525980253E-10  0.17130000000E+03  0.17130000000E+03 0.  1.
       11    1    1    2    0    0  0.78468660385E-03  0.47850783343E-03  0.50428025568E+00  0.50428135221E+00  0.51109989000E-03 0. -1.
     -623    1    1    2    0    0 -0.60571965110E-03  0.75037448286E-03  0.12872814381E-04  0.17130000000E+03  0.17130000000E+03 0.  1.
      622    1    1    2    0    0 -0.17896695041E-03 -0.12288823192E-02  0.34957068543E+01  0.34957186605E+01  0.90000000000E-02 0. -1.
</event>
<event>
 5   0  0.6135700E+09  0.9118800E+02  0.7818608E-02  0.1180000E+00
       11   -1    0    0    0    0  0.00000000000E+00  0.00000000000E+00  0.39999999673E+01  0.40000000000E+01  0.51109989000E-03 0.  1.
     -623   -1    0    0    0    0  0.00000000000E+00  0.00000000000E+00  0.12525980253E-10  0.17130000000E+03  0.17130000000E+03 0. -1.
       11    1    1    2    0    0  0.11862876729E-02  0.34541913909E-03  0.84939634728E+00  0.84939739968E+00  0.51109989000E-03 0.  1.
     -623    1    1    2    0    0 -0.30453602962E-03  0.44994773065E-03  0.14099117854E-04  0.17130000000E+03  0.17130000000E+03 0. -1.
      622    1    1    2    0    0 -0.88175164335E-03 -0.79536686969E-03  0.31505895205E+01  0.31506025990E+01  0.90000000000E-02 0.  1.
</event>
<event>
 5   0  0.6135700E+09  0.9118800E+02  0.7818608E-02  0.1180000E+00
       11   -1    0    0    0    0  0.00000000000E+00  0.00000000000E+00  0.39999999673E+01  0.40000000000E+01  0.51109989000E-03 0.  1.
     -623   -1    0    0    0    0  0.00000000000E+00  0.00000000000E+00  0.12525980253E-10  0.17130000000E+03  0.17130000000E+03 0. -1.
       11    1    1    2    0    0  0.67496731819E-03 -0.11630755873E-03  0.11847205344E+00  0.11847513569E+00  0.51109989000E-03 0.  1.
     -623    1    1    2    0    0  0.29776104628E-04  0.15430208585E-05  0.13549349283E-04  0.17130000000E+03  0.17130000000E+03 0. -1.
      622    1    1    2    0    0 -0.70474342296E-03  0.11476453786E-03  0.38815143834E+01  0.38815248832E+01  0.90000000000E-02 0.  1.
</event>
<event>
 5   0  0.6135700E+09  0.9118800E+02  0.7818608E-02  0.1180000E+00
       11   -1    0    0    0    0  0.00000000000E+00  0.00000000000E+00  0.39999999673E+01  0.40000000000E+01  0.51109989000E-03 0. -1.
     -623   -1    0    0    0    0  0.00000000000E+00  0.00000000000E+00  0.12525980253E-10  0.17130000000E+03  0.17130000000E+03 0.  1.
       11    1    1    2    0    0 -0.40291736218E-04 -0.44751911112E-02  0.28865535670E-01  0.29214882022E-01  0.51109989000E-03 0. -1.
     -623    1    1    2    0    0  0.11705503683E-02 -0.15195015194E-02  0.36421031215E-03  0.17130000001E+03  0.17130000000E+03 0.  1.
      622    1    1    2    0    0 -0.11302586322E-02  0.59946926308E-02  0.39707702219E+01  0.39707851074E+01  0.90000000000E-02 0. -1.
</event>
<event>
 5   0  0.6135700E+09  0.9118800E+02  0.7818608E-02  0.1180000E+00
       11   -1    0    0    0    0  0.00000000000E+00  0.00000000000E+00  0.39999999673E+01  0.40000000000E+01  0.51109989000E-03 0. -1.
     -623   -1    0    0    0    0  0.00000000000E+00  0.00000000000E+00  0.12525980253E-10  0.17130000000E+03  0.17130000000E+03 0. -1.
       11    1    1    2    0    0 -0.25525674500E-03  0.79319574206E-03  0.61243311196E-01  0.61251111866E-01  0.51109989000E-03 0. -1.
     -623    1    1    2    0    0  0.17147226552E-04  0.23896939792E-04  0.18142450088E-04  0.17130000000E+03  0.17130000000E+03 0. -1.
      622    1    1    2    0    0  0.23810951839E-03 -0.81709268193E-03  0.39387385264E+01  0.39387489008E+01  0.90000000000E-02 0. -1.
</event>
<event>
 5   0  0.6135700E+09  0.9118800E+02  0.7818608E-02  0.1180000E+00
       11   -1    0    0    0    0  0.00000000000E+00  0.00000000000E+00  0.39999999673E+01  0.40000000000E+01  0.51109989000E-03 0.  1.
     -623   -1    0    0    0    0  0.00000000000E+00  0.00000000000E+00  0.12525980253E-10  0.17130000000E+03  0.17130000000E+03 0. -1.
       11    1    1    2    0    0 -0.25345502579E-02 -0.22003126264E-02  0.11489165100E+01  0.11489215263E+01  0.51109989000E-03 0.  1.
     -623    1    1    2    0    0  0.10496226456E-03  0.43210567808E-03  0.20772904473E-04  0.17130000000E+03  0.17130000000E+03 0. -1.
      622    1    1    2    0    0  0.24295879936E-02  0.17682069495E-02  0.28510626729E+01  0.28510784616E+01  0.90000000000E-02 0.  0.
</event>
<event>
 5   0  0.6135700E+09  0.9118800E+02  0.7818608E-02  0.1180000E+00
       11   -1    0    0    0    0  0.00000000000E+00  0.00000000000E+00  0.39999999673E+01  0.40000000000E+01  0.51109989000E-03 0.  1.
     -623   -1    0    0    0    0  0.00000000000E+00  0.00000000000E+00  0.12525980253E-10  0.17130000000E+03  0.17130000000E+03 0. -1.
       11    1    1    2    0    0 -0.27256791931E-02 -0.11814509232E-02  0.11704862283E+01  0.11704901097E+01  0.51109989000E-03 0.  1.
     -623    1    1    2    0    0  0.19198018237E-04 -0.67970785493E-05  0.19706187884E-04  0.17130000000E+03  0.17130000000E+03 0. -1.
      622    1    1    2    0    0  0.27064811749E-02  0.11882480018E-02  0.28294940329E+01  0.28295098903E+01  0.90000000000E-02 0.  1.
</event>
<event>
 5   0  0.6135700E+09  0.9118800E+02  0.7818608E-02  0.1180000E+00
       11   -1    0    0    0    0  0.00000000000E+00  0.00000000000E+00  0.39999999673E+01  0.40000000000E+01  0.51109989000E-03 0.  1.
     -623   -1    0    0    0    0  0.00000000000E+00  0.00000000000E+00  0.12525980253E-10  0.17130000000E+03  0.17130000000E+03 0. -1.
       11    1    1    2    0    0 -0.10223980380E-02  0.44781234382E-03  0.16145954900E+00  0.16146421591E+00  0.51109989000E-03 0.  1.
     -623    1    1    2    0    0  0.16927378857E-03  0.23745530894E-03  0.15341406216E-04  0.17130000000E+03  0.17130000000E+03 0. -1.
      622    1    1    2    0    0  0.85312424910E-03 -0.68526765326E-03  0.38385250853E+01  0.38385357922E+01  0.90000000000E-02 0.  1.
</event>
<event>
 5   0  0.6135700E+09  0.9118800E+02  0.7818608E-02  0.1180000E+00
       11   -1    0    0    0    0  0.00000000000E+00  0.00000000000E+00  0.39999999673E+01  0.40000000000E+01  0.51109989000E-03 0. -1.
     -623   -1    0    0    0    0  0.00000000000E+00  0.00000000000E+00  0.12525980253E-10  0.17130000000E+03  0.17130000000E+03 0. -1.
       11    1    1    2    0    0  0.13105631836E-02  0.10413951962E-02  0.14715247728E+00  0.14716288551E+00  0.51109989000E-03 0. -1.
     -623    1    1    2    0    0  0.49364037221E-04 -0.35289603426E-03  0.21189233475E-04  0.17130000000E+03  0.17130000000E+03 0. -1.
      622    1    1    2    0    0 -0.13599272208E-02 -0.68849916189E-03  0.38528263008E+01  0.38528371141E+01  0.90000000000E-02 0. -1.
</event>
<event>
 5   0  0.6135700E+09  0.9118800E+02  0.7818608E-02  0.1180000E+00
       11   -1    0    0    0    0  0.00000000000E+00  0.00000000000E+00  0.39999999673E+01  0.40000000000E+01  0.51109989000E-03 0.  1.
     -623   -1    0    0    0    0  0.00000000000E+00  0.00000000000E+00  0.12525980253E-10  0.17130000000E+03  0.17130000000E+03 0.  1.
       11    1    1    2    0    0 -0.49836301716E-05 -0.88819130838E-03  0.59999997096E-01  0.60008747538E-01  0.51109989000E-03 0.  1.
     -623    1    1    2    0    0  0.41017040945E-03  0.15245067334E-03  0.19087115659E-04  0.17130000000E+03  0.17130000000E+03 0.  1.
      622    1    1    2    0    0 -0.40518677928E-03  0.73574063504E-03  0.39399808831E+01  0.39399912519E+01  0.90000000000E-02 0.  1.
</event>
<event>
 5   0  0.6135700E+09  0.9118800E+02  0.7818608E-02  0.1180000E+00
       11   -1    0    0    0    0  0.00000000000E+00  0.00000000000E+00  0.39999999673E+01  0.40000000000E+01  0.51109989000E-03 0.  1.
     -623   -1    0    0    0    0  0.00000000000E+00  0.00000000000E+00  0.12525980253E-10  0.17130000000E+03  0.17130000000E+03 0. -1.
       11    1    1    2    0    0 -0.49702866759E-02  0.67655454318E-02  0.54510030608E+00  0.54516518714E+00  0.51109989000E-03 0.  1.
     -623    1    1    2    0    0  0.65694399654E-03 -0.18176500073E-02  0.82817781989E-04  0.17130000001E+03  0.17130000000E+03 0. -1.
      622    1    1    2    0    0  0.43133426794E-02 -0.49478954245E-02  0.34548168435E+01  0.34548348019E+01  0.90000000000E-02 0.  1.
</event>
<event>
 5   0  0.6135700E+09  0.9118800E+02  0.7818608E-02  0.1180000E+00
       11   -1    0    0    0    0  0.00000000000E+00  0.00000000000E+00  0.39999999673E+01  0.40000000000E+01  0.51109989000E-03 0. -1.
     -623   -1    0    0    0    0  0.00000000000E+00  0.00000000000E+00  0.12525980253E-10  0.17130000000E+03  0.17130000000E+03 0. -1.
       11    1    1    2    0    0  0.89700803564E-04  0.17143826671E-03  0.89792062720E-01  0.89793725771E-01  0.51109989000E-03 0. -1.
     -623    1    1    2    0    0 -0.24537475245E-05 -0.15473837349E-03  0.11989013985E-04  0.17130000000E+03  0.17130000000E+03 0. -1.
      622    1    1    2    0    0 -0.87247056007E-04 -0.16699891182E-04  0.39101959683E+01  0.39102063268E+01  0.90000000000E-02 0. -1.
</event>
<event>
 5   0  0.6135700E+09  0.9118800E+02  0.7818608E-02  0.1180000E+00
       11   -1    0    0    0    0  0.00000000000E+00  0.00000000000E+00  0.39999999673E+01  0.40000000000E+01  0.51109989000E-03 0.  1.
     -623   -1    0    0    0    0  0.00000000000E+00  0.00000000000E+00  0.12525980253E-10  0.17130000000E+03  0.17130000000E+03 0. -1.
       11    1    1    2    0    0 -0.30677987018E-03  0.18539847005E-02  0.59986725974E+00  0.59987042093E+00  0.51109989000E-03 0.  1.
     -623    1    1    2    0    0 -0.19801790925E-02 -0.16710182388E-02  0.15833514534E-04  0.17130000002E+03  0.17130000000E+03 0. -1.
      622    1    1    2    0    0  0.22869589627E-02 -0.18296646169E-03  0.34001168741E+01  0.34001295595E+01  0.90000000000E-02 0.  1.
</event>
<event>
 5   0  0.6135700E+09  0.9118800E+02  0.7818608E-02  0.1180000E+00
       11   -1    0    0    0    0  0.00000000000E+00  0.00000000000E+00  0.39999999673E+01  0.40000000000E+01  0.51109989000E-03 0.  1.
     -623   -1    0    0    0    0  0.00000000000E+00  0.00000000000E+00  0.12525980253E-10  0.17130000000E+03  0.17130000000E+03 0.  1.
       11    1    1    2    0    0 -0.85092351765E-03 -0.15113168515E-03  0.67966691162E-01  0.67974107146E-01  0.51109989000E-03 0.  1.
     -623    1    1    2    0    0 -0.30818996264E-04  0.74805814476E-04  0.17783015674E-04  0.17130000000E+03  0.17130000000E+03 0.  1.
      622    1    1    2    0    0  0.88174251388E-03  0.76325870774E-04  0.39320154879E+01  0.39320258876E+01  0.90000000000E-02 0.  1.
</event>
<event>
 5   0  0.6135700E+09  0.9118800E+02  0.7818608E-02  0.1180000E+00
       11   -1    0    0    0    0  0.00000000000E+00  0.00000000000E+00  0.39999999673E+01  0.40000000000E+01  0.51109989000E-03 0. -1.
     -623   -1    0    0    0    0  0.00000000000E+00  0.00000000000E+00  0.12525980253E-10  0.17130000000E+03  0.17130000000E+03 0.  1.
       11    1    1    2    0    0  0.13519024048E-03  0.33076967608E-03  0.28920611744E-01  0.28927334680E-01  0.51109989000E-03 0. -1.
     -623    1    1    2    0    0 -0.10411421341E-03 -0.52253667239E-04  0.16898994394E-04  0.17130000000E+03  0.17130000000E+03 0.  1.
      622    1    1    2    0    0 -0.31076027069E-04 -0.27851600883E-03  0.39710624568E+01  0.39710726655E+01  0.90000000000E-02 0. -1.
</event>
<event>
 5   0  0.6135700E+09  0.9118800E+02  0.7818608E-02  0.1180000E+00
       11   -1    0    0    0    0  0.00000000000E+00  0.00000000000E+00  0.39999999673E+01  0.40000000000E+01  0.51109989000E-03 0.  1.
     -623   -1    0    0    0    0  0.00000000000E+00  0.00000000000E+00  0.12525980253E-10  0.17130000000E+03  0.17130000000E+03 0.  1.
       11    1    1    2    0    0 -0.57107240233E-03  0.10310659682E-03  0.98782058088E-02  0.99084271081E-02  0.51109989000E-03 0.  1.
     -623    1    1    2    0    0 -0.30598558377E-03 -0.59546526619E-03  0.40466898453E-04  0.17130000000E+03  0.17130000000E+03 0.  1.
      622    1    1    2    0    0  0.87705798629E-03  0.49235866974E-03  0.39900812971E+01  0.39900915740E+01  0.90000000000E-02 0.  1.
</event>
<event>
 5   0  0.6135700E+09  0.9118800E+02  0.7818608E-02  0.1180000E+00
       11   -1    0    0    0    0  0.00000000000E+00  0.00000000000E+00  0.39999999673E+01  0.40000000000E+01  0.51109989000E-03 0. -1.
     -623   -1    0    0    0    0  0.00000000000E+00  0.00000000000E+00  0.12525980253E-10  0.17130000000E+03  0.17130000000E+03 0.  1.
       11    1    1    2    0    0  0.16007674746E-02 -0.18722431260E-02  0.63280870389E+00  0.63281370457E+00  0.51109989000E-03 0. -1.
     -623    1    1    2    0    0  0.61717529009E-04 -0.44710582374E-05  0.17929331895E-04  0.17130000000E+03  0.17130000000E+03 0.  1.
      622    1    1    2    0    0 -0.16624850034E-02  0.18767141842E-02  0.33671733188E+01  0.33671862801E+01  0.90000000000E-02 0. -1.
</event>
<event>
 5   0  0.6135700E+09  0.9118800E+02  0.7818608E-02  0.1180000E+00
       11   -1    0    0    0    0  0.00000000000E+00  0.00000000000E+00  0.39999999673E+01  0.40000000000E+01  0.51109989000E-03 0. -1.
     -623   -1    0    0    0    0  0.00000000000E+00  0.00000000000E+00  0.12525980253E-10  0.17130000000E+03  0.17130000000E+03 0.  1.
       11    1    1    2    0    0  0.17074911382E-05  0.19797791448E-03  0.11544854271E-01  0.11557857993E-01  0.51109989000E-03 0. -1.
     -623    1    1    2    0    0  0.21635335929E-03 -0.50749844721E-03  0.23144297402E-04  0.17130000000E+03  0.17130000000E+03 0.  1.
      622    1    1    2    0    0 -0.21806085041E-03  0.30952053269E-03  0.39884319685E+01  0.39884421408E+01  0.90000000000E-02 0. -1.
</event>
<event>
 5   0  0.6135700E+09  0.9118800E+02  0.7818608E-02  0.1180000E+00
       11   -1    0    0    0    0  0.00000000000E+00  0.00000000000E+00  0.39999999673E+01  0.40000000000E+01  0.51109989000E-03 0.  1.
     -623   -1    0    0    0    0  0.00000000000E+00  0.00000000000E+00  0.12525980253E-10  0.17130000000E+03  0.17130000000E+03 0.  1.
       11    1    1    2    0    0  0.11643708413E-02  0.51297507156E-03  0.23042825918E+00  0.23043233878E+00  0.51109989000E-03 0.  1.
     -623    1    1    2    0    0  0.81173447374E-04 -0.11290460296E-03  0.15017971966E-04  0.17130000000E+03  0.17130000000E+03 0.  1.
      622    1    1    2    0    0 -0.12455442886E-02 -0.40007046860E-03  0.37695566902E+01  0.37695676612E+01  0.90000000000E-02 0.  1.
</event>
<event>
 5   0  0.6135700E+09  0.9118800E+02  0.7818608E-02  0.1180000E+00
       11   -1    0    0    0    0  0.00000000000E+00  0.00000000000E+00  0.39999999673E+01  0.40000000000E+01  0.51109989000E-03 0. -1.
     -623   -1    0    0    0    0  0.00000000000E+00  0.00000000000E+00  0.12525980253E-10  0.17130000000E+03  0.17130000000E+03 0. -1.
       11    1    1    2    0    0 -0.33849582630E-05 -0.26004909914E-02  0.25860646026E+00  0.25862003997E+00  0.51109989000E-03 0. -1.
     -623    1    1    2    0    0  0.79986340875E-03  0.11761236538E-02  0.24733787742E-04  0.17130000001E+03  0.17130000000E+03 0. -1.
      622    1    1    2    0    0 -0.79647845049E-03  0.14243673376E-02  0.37413687733E+01  0.37413799541E+01  0.90000000000E-02 0. -1.
</event>
<event>
 5   0  0.6135700E+09  0.9118800E+02  0.7818608E-02  0.1180000E+00
       11   -1    0    0    0    0  0.00000000000E+00  0.00000000000E+00  0.39999999673E+01  0.40000000000E+01  0.51109989000E-03 0.  1.
     -623   -1    0    0    0    0  0.00000000000E+00  0.00000000000E+00  0.12525980253E-10  0.17130000000E+03  0.17130000000E+03 0. -1.
       11    1    1    2    0    0  0.56799481368E-02 -0.62830343645E-02  0.99913896860E+00  0.99917499875E+00  0.51109989000E-03 0.  1.
     -623    1    1    2    0    0  0.16086199921E-04 -0.12583056061E-03  0.61743658187E-04  0.17130000000E+03  0.17130000000E+03 0. -1.
      622    1    1    2    0    0 -0.56960343368E-02  0.64088649252E-02  0.30007992551E+01  0.30008250012E+01  0.90000000000E-02 0.  1.
</event>
<event>
 5   0  0.6135700E+09  0.9118800E+02  0.7818608E-02  0.1180000E+00
       11   -1    0    0    0    0  0.00000000000E+00  0.00000000000E+00  0.39999999673E+01  0.40000000000E+01  0.51109989000E-03 0.  1.
     -623   -1    0    0    0    0  0.00000000000E+00  0.00000000000E+00  0.12525980253E-10  0.17130000000E+03  0.17130000000E+03 0. -1.
       11    1    1    2    0    0 -0.19756372866E-03 -0.21473137254E-02  0.23828548914E+00  0.23829579423E+00  0.51109989000E-03 0.  1.
     -623    1    1    2    0    0 -0.84691151340E-03  0.38766514910E-03  0.21597960832E-04  0.17130000000E+03  0.17130000000E+03 0. -1.
      622    1    1    2    0    0  0.10444752461E-02  0.17596485745E-02  0.37616928996E+01  0.37617042225E+01  0.90000000000E-02 0.  1.
</event>
<event>
 5   0  0.6135700E+09  0.9118800E+02  0.7818608E-02  0.1180000E+00
       11   -1    0    0    0    0  0.00000000000E+00  0.00000000000E+00  0.39999999673E+01  0.40000000000E+01  0.51109989000E-03 0. -1.
     -623   -1    0    0    0    0  0.00000000000E+00  0.00000000000E+00  0.12525980253E-10  0.17130000000E+03  0.17130000000E+03 0.  1.
       11    1    1    2    0    0  0.59562995736E-03 -0.55487552290E-03  0.30062643551E+00  0.30062797210E+00  0.51109989000E-03 0. -1.
     -623    1    1    2    0    0  0.25842400425E-03  0.59719289067E-03  0.12551837925E-04  0.17130000000E+03  0.17130000000E+03 0.  1.
      622    1    1    2    0    0 -0.85405396161E-03 -0.42317367767E-04  0.36993609800E+01  0.36993720267E+01  0.90000000000E-02 0. -1.
</event>
<event>
 5   0  0.6135700E+09  0.9118800E+02  0.7818608E-02  0.1180000E+00
       11   -1    0    0    0    0  0.00000000000E+00  0.00000000000E+00  0.39999999673E+01  0.40000000000E+01  0.51109989000E-03 0. -1.
     -623   -1    0    0    0    0  0.00000000000E+00  0.00000000000E+00  0.12525980253E-10  0.17130000000E+03  0.17130000000E+03 0. -1.
       11    1    1    2    0    0  0.48995250635E-02  0.17079858673E-02  0.35628439796E+00  0.35632254492E+00  0.51109989000E-03 0. -1.
     -623    1    1    2    0    0 -0.13668970783E-04  0.63942052193E-03  0.53262594903E-04  0.17130000000E+03  0.17130000000E+03 0. -1.
      622    1    1    2    0    0 -0.48858560927E-02 -0.23474063906E-02  0.36436623153E+01  0.36436774624E+01  0.90000000000E-02 0. -1.
</event>
<event>
 5   0  0.6135700E+09  0.9118800E+02  0.7818608E-02  0.1180000E+00
       11   -1    0    0    0    0  0.00000000000E+00  0.00000000000E+00  0.39999999673E+01  0.40000000000E+01  0.51109989000E-03 0. -1.
     -623   -1    0    0    0    0  0.00000000000E+00  0.00000000000E+00  0.12525980253E-10  0.17130000000E+03  0.17130000000E+03 0.  1.
       11    1    1    2    0    0  0.24872997326E-02  0.43991514378E-03  0.76663257493E-01  0.76706560722E-01  0.51109989000E-03 0. -1.
     -623    1    1    2    0    0 -0.16217102210E-03  0.50494019193E-03  0.54397160450E-04  0.17130000000E+03  0.17130000000E+03 0.  1.
      622    1    1    2    0    0 -0.23251287106E-02 -0.94485533537E-03  0.39232823100E+01  0.39232934357E+01  0.90000000000E-02 0. -1.
</event>
<event>
 5   0  0.6135700E+09  0.9118800E+02  0.7818608E-02  0.1180000E+00
       11   -1    0    0    0    0  0.00000000000E+00  0.00000000000E+00  0.39999999673E+01  0.40000000000E+01  0.51109989000E-03 0. -1.
     -623   -1    0    0    0    0  0.00000000000E+00  0.00000000000E+00  0.12525980253E-10  0.17130000000E+03  0.17130000000E+03 0. -1.
       11    1    1    2    0    0 -0.16818181460E-02 -0.72858053419E-02  0.98602712889E+00  0.98605561283E+00  0.51109989000E-03 0. -1.
     -623    1    1    2    0    0 -0.59476547867E-03  0.62191808348E-02  0.43051359383E-04  0.17130000011E+03  0.17130000000E+03 0. -1.
      622    1    1    2    0    0  0.22765836246E-02  0.10666245071E-02  0.30139297871E+01  0.30139442732E+01  0.90000000000E-02 0.  0.
</event>
<event>
 5   0  0.6135700E+09  0.9118800E+02  0.7818608E-02  0.1180000E+00
       11   -1    0    0    0    0  0.00000000000E+00  0.00000000000E+00  0.39999999673E+01  0.40000000000E+01  0.51109989000E-03 0.  1.
     -623   -1    0    0    0    0  0.00000000000E+00  0.00000000000E+00  0.12525980253E-10  0.17130000000E+03  0.17130000000E+03 0. -1.
       11    1    1    2    0    0 -0.75068312687E-03 -0.61039475350E-03  0.61535595448E-01  0.61545323438E-01  0.51109989000E-03 0.  1.
     -623    1    1    2    0    0 -0.34137014152E-04  0.34582646286E-04  0.20098881724E-04  0.17130000000E+03  0.17130000000E+03 0. -1.
      622    1    1    2    0    0  0.78482014113E-03  0.57581210710E-03  0.39384442858E+01  0.39384546894E+01  0.90000000000E-02 0.  1.
</event>
<event>
 5   0  0.6135700E+09  0.9118800E+02  0.7818608E-02  0.1180000E+00
       11   -1    0    0    0    0  0.00000000000E+00  0.00000000000E+00  0.39999999673E+01  0.40000000000E+01  0.51109989000E-03 0.  1.
     -623   -1    0    0    0    0  0.00000000000E+00  0.00000000000E+00  0.12525980253E-10  0.17130000000E+03  0.17130000000E+03 0. -1.
       11    1    1    2    0    0 -0.26624551618E-02 -0.25216157984E-02  0.43244789197E+00  0.43246374149E+00  0.51109989000E-03 0.  1.
     -623    1    1    2    0    0 -0.18479620407E-02  0.10303851390E-02  0.30345269901E-04  0.17130000001E+03  0.17130000000E+03 0. -1.
      622    1    1    2    0    0  0.45104171994E-02  0.14912306611E-02  0.35675217235E+01  0.35675362388E+01  0.90000000000E-02 0.  1.
</event>
<event>
 5   0  0.6135700E+09  0.9118800E+02  0.7818608E-02  0.1180000E+00
       11   -1    0    0    0    0  0.00000000000E+00  0.00000000000E+00  0.39999999673E+01  0.40000000000E+01  0.51109989000E-03 0.  1.
     -623   -1    0    0    0    0  0.00000000000E+00  0.00000000000E+00  0.12525980253E-10  0.17130000000E+03  0.17130000000E+03 0.  1.
       11    1    1    2    0    0 -0.14118354741E-02 -0.13082814213E-02  0.47563095795E-01  0.47604770606E-01  0.51109989000E-03 0.  1.
     -623    1    1    2    0    0 -0.26107478114E-03  0.64188957051E-04  0.52439197893E-04  0.17130000000E+03  0.17130000000E+03 0.  1.
      622    1    1    2    0    0  0.16729102559E-02  0.12440924641E-02  0.39523844414E+01  0.39523952382E+01  0.90000000000E-02 0.  1.
</event>
<event>
 5   0  0.6135700E+09  0.9118800E+02  0.7818608E-02  0.1180000E+00
       11   -1    0    0    0    0  0.00000000000E+00  0.00000000000E+00  0.39999999673E+01  0.40000000000E+01  0.51109989000E-03 0.  1.
     -623   -1    0    0    0    0  0.00000000000E+00  0.00000000000E+00  0.12525980253E-10  0.17130000000E+03  0.17130000000E+03 0. -1.
       11    1    1    2    0    0  0.56068101028E-03  0.60718144448E-03  0.68902613815E-02  0.69584450145E-02  0.51109989000E-03 0. -1.
     -623    1    1    2    0    0 -0.72644911878E-03 -0.23789361944E-03  0.78315890702E-04  0.17130000000E+03  0.17130000000E+03 0. -1.
      622    1    1    2    0    0  0.16576810850E-03 -0.36928782504E-03  0.39930313901E+01  0.39930415533E+01  0.90000000000E-02 0.  1.
</event>
<event>
 5   0  0.6135700E+09  0.9118800E+02  0.7818608E-02  0.1180000E+00
       11   -1    0    0    0    0  0.00000000000E+00  0.00000000000E+00  0.39999999673E+01  0.40000000000E+01  0.51109989000E-03 0.  1.
     -623   -1    0    0    0    0  0.00000000000E+00  0.00000000000E+00  0.12525980253E-10  0.17130000000E+03  0.17130000000E+03 0. -1.
       11    1    1    2    0    0  0.26969899874E-02  0.45662338372E-02  0.11302615659E+01  0.11302741229E+01  0.51109989000E-03 0.  1.
     -623    1    1    2    0    0 -0.97097457208E-03 -0.49048697252E-03  0.30054046794E-04  0.17130000000E+03  0.17130000000E+03 0. -1.
      622    1    1    2    0    0 -0.17260154133E-02 -0.40757468637E-02  0.28697083556E+01  0.28697258819E+01  0.90000000000E-02 0.  0.
</event>
<event>
 5   0  0.6135700E+09  0.9118800E+02  0.7818608E-02  0.1180000E+00
       11   -1    0    0    0    0  0.00000000000E+00  0.00000000000E+00  0.39999999673E+01  0.40000000000E+01  0.51109989000E-03 0.  1.
     -623   -1    0    0    0    0  0.00000000000E+00  0.00000000000E+00  0.12525980253E-10  0.17130000000E+03  0.17130000000E+03 0. -1.
       11    1    1    2    0    0 -0.82057624470E-04 -0.22878557469E-03  0.30108768653E-01  0.30114087221E-01  0.51109989000E-03 0.  1.
     -623    1    1    2    0    0  0.19127773893E-03  0.12615863717E-03  0.15490729013E-04  0.17130000000E+03  0.17130000000E+03 0. -1.
      622    1    1    2    0    0 -0.10922011453E-03  0.10262693747E-03  0.39698757096E+01  0.39698859143E+01  0.90000000000E-02 0.  1.
</event>
<event>
 5   0  0.6135700E+09  0.9118800E+02  0.7818608E-02  0.1180000E+00
       11   -1    0    0    0    0  0.00000000000E+00  0.00000000000E+00  0.39999999673E+01  0.40000000000E+01  0.51109989000E-03 0. -1.
     -623   -1    0    0    0    0  0.00000000000E+00  0.00000000000E+00  0.12525980253E-10  0.17130000000E+03  0.17130000000E+03 0. -1.
       11    1    1    2    0    0  0.33161929166E-02  0.14864594752E-02  0.39509087263E-01  0.39679161972E-01  0.51109989000E-03 0. -1.
     -623    1    1    2    0    0  0.57920019017E-03 -0.42749371638E-02  0.18322040833E-03  0.17130000005E+03  0.17130000000E+03 0. -1.
      622    1    1    2    0    0 -0.38953931068E-02  0.27884776886E-02  0.39603076597E+01  0.39603207836E+01  0.90000000000E-02 0. -1.
</event>
<event>
 5   0  0.6135700E+09  0.9118800E+02  0.7818608E-02  0.1180000E+00
       11   -1    0    0    0    0  0.00000000000E+00  0.00000000000E+00  0.39999999673E+01  0.40000000000E+01  0.51109989000E-03 0. -1.
     -623   -1    0    0    0    0  0.00000000000E+00  0.00000000000E+00  0.12525980253E-10  0.17130000000E+03  0.17130000000E+03 0. -1.
       11    1    1    2    0    0 -0.12215042305E-02  0.60830432320E-03  0.27744432952E-01  0.27782672416E-01  0.51109989000E-03 0. -1.
     -623    1    1    2    0    0 -0.10595532865E-03  0.17791982628E-03  0.48702404379E-04  0.17130000000E+03  0.17130000000E+03 0. -1.
      622    1    1    2    0    0  0.13274595591E-02 -0.78622414948E-03  0.39722068320E+01  0.39722173275E+01  0.90000000000E-02 0. -1.
</event>
<event>
 5   0  0.6135700E+09  0.9118800E+02  0.7818608E-02  0.1180000E+00
       11   -1    0    0    0    0  0.00000000000E+00  0.00000000000E+00  0.39999999673E+01  0.40000000000E+01  0.51109989000E-03 0. -1.
     -623   -1    0    0    0    0  0.00000000000E+00  0.00000000000E+00  0.12525980253E-10  0.17130000000E+03  0.17130000000E+03 0. -1.
       11    1    1    2    0    0 -0.22251648918E-02  0.23726247379E-01  0.53085547676E+00  0.53139033168E+00  0.51109989000E-03 0. -1.
     -623    1    1    2    0    0 -0.34127041073E-03  0.18197952329E-03  0.62984738338E-03  0.17130000000E+03  0.17130000000E+03 0. -1.
      622    1    1    2    0    0  0.25664353025E-02 -0.23908226903E-01  0.34685146432E+01  0.34686096667E+01  0.90000000000E-02 0. -1.
</event>
<event>
 5   0  0.6135700E+09  0.9118800E+02  0.7818608E-02  0.1180000E+00
       11   -1    0    0    0    0  0.00000000000E+00  0.00000000000E+00  0.39999999673E+01  0.40000000000E+01  0.51109989000E-03 0. -1.
     -623   -1    0    0    0    0  0.00000000000E+00  0.00000000000E+00  0.12525980253E-10  0.17130000000E+03  0.17130000000E+03 0.  1.
       11    1    1    2    0    0 -0.21146033065E-02  0.45273582687E-03  0.82012600171E+00  0.82012901206E+00  0.51109989000E-03 0. -1.
     -623    1    1    2    0    0  0.16913384389E-04  0.65522330166E-04  0.16448249860E-04  0.17130000000E+03  0.17130000000E+03 0.  1.
      622    1    1    2    0    0  0.20976899220E-02 -0.51825815730E-03  0.31798575336E+01  0.31798710042E+01  0.90000000000E-02 0. -1.
</event>
<event>
 5   0  0.6135700E+09  0.9118800E+02  0.7818608E-02  0.1180000E+00
       11   -1    0    0    0    0  0.00000000000E+00  0.00000000000E+00  0.39999999673E+01  0.40000000000E+01  0.51109989000E-03 0. -1.
     -623   -1    0    0    0    0  0.00000000000E+00  0.00000000000E+00  0.12525980253E-10  0.17130000000E+03  0.17130000000E+03 0.  1.
       11    1    1    2    0    0 -0.14371352714E-02 -0.40407601327E-03  0.93331097330E+00  0.93331230718E+00  0.51109989000E-03 0. -1.
     -623    1    1    2    0    0 -0.39334829483E-04 -0.43105420450E-05  0.14890327632E-04  0.17130000000E+03  0.17130000000E+03 0.  1.
      622    1    1    2    0    0  0.14764701009E-02  0.40838655532E-03  0.30666741037E+01  0.30666876928E+01  0.90000000000E-02 0. -1.
</event>
<event>
 5   0  0.6135700E+09  0.9118800E+02  0.7818608E-02  0.1180000E+00
       11   -1    0    0    0    0  0.00000000000E+00  0.00000000000E+00  0.39999999673E+01  0.40000000000E+01  0.51109989000E-03 0.  1.
     -623   -1    0    0    0    0  0.00000000000E+00  0.00000000000E+00  0.12525980253E-10  0.17130000000E+03  0.17130000000E+03 0.  1.
       11    1    1    2    0    0  0.17705196313E-04 -0.17182511385E-02  0.37698953846E-01  0.37741555938E-01  0.51109989000E-03 0.  1.
     -623    1    1    2    0    0 -0.19716647731E-04 -0.22958481533E-04  0.53173507017E-04  0.17130000000E+03  0.17130000000E+03 0.  1.
      622    1    1    2    0    0  0.20114514532E-05  0.17412096201E-02  0.39622478471E+01  0.39622584511E+01  0.90000000000E-02 0.  1.
</event>
<event>
 5   0  0.6135700E+09  0.9118800E+02  0.7818608E-02  0.1180000E+00
       11   -1    0    0    0    0  0.00000000000E+00  0.00000000000E+00  0.39999999673E+01  0.40000000000E+01  0.51109989000E-03 0.  1.
     -623   -1    0    0    0    0  0.00000000000E+00  0.00000000000E+00  0.12525980253E-10  0.17130000000E+03  0.17130000000E+03 0.  1.
       11    1    1    2    0    0 -0.25731355015E-02 -0.21020235052E-02  0.11233733461E+00  0.11238762164E+00  0.51109989000E-03 0.  1.
     -623    1    1    2    0    0 -0.12954845919E-03 -0.10924792951E-03  0.62240559215E-04  0.17130000000E+03  0.17130000000E+03 0.  1.
      622    1    1    2    0    0  0.27026839607E-02  0.22112714347E-02  0.38876003947E+01  0.38876123808E+01  0.90000000000E-02 0.  1.
</event>
<event>
 5   0  0.6135700E+09  0.9118800E+02  0.7818608E-02  0.1180000E+00
       11   -1    0    0    0    0  0.00000000000E+00  0.00000000000E+00  0.39999999673E+01  0.40000000000E+01  0.51109989000E-03 0.  1.
     -623   -1    0    0    0    0  0.00000000000E+00  0.00000000000E+00  0.12525980253E-10  0.17130000000E+03  0.17130000000E+03 0. -1.
       11    1    1    2    0    0 -0.48389164036E-04  0.14300341697E-02  0.18153347424E-01  0.18216821486E-01  0.51109989000E-03 0.  1.
     -623    1    1    2    0    0  0.69797060124E-03 -0.39239017748E-03  0.73802834057E-04  0.17130000000E+03  0.17130000000E+03 0. -1.
      622    1    1    2    0    0 -0.64958143703E-03 -0.10376439923E-02  0.39817728162E+01  0.39817831757E+01  0.90000000000E-02 0.  1.
</event>
<event>
 5   0  0.6135700E+09  0.9118800E+02  0.7818608E-02  0.1180000E+00
       11   -1    0    0    0    0  0.00000000000E+00  0.00000000000E+00  0.39999999673E+01  0.40000000000E+01  0.51109989000E-03 0. -1.
     -623   -1    0    0    0    0  0.00000000000E+00  0.00000000000E+00  0.12525980253E-10  0.17130000000E+03  0.17130000000E+03 0. -1.
       11    1    1    2    0    0  0.48347822377E-03  0.13303883751E-02  0.20179690134E+00  0.20180251311E+00  0.51109989000E-03 0. -1.
     -623    1    1    2    0    0  0.37767376167E-03 -0.23044115308E-03  0.16499565165E-04  0.17130000000E+03  0.17130000000E+03 0. -1.
      622    1    1    2    0    0 -0.86115198633E-03 -0.10999472214E-02  0.37981865759E+01  0.37981974958E+01  0.90000000000E-02 0. -1.
</event>
<event>
 5   0  0.6135700E+09  0.9118800E+02  0.7818608E-02  0.1180000E+00
       11   -1    0    0    0    0  0.00000000000E+00  0.00000000000E+00  0.39999999673E+01  0.40000000000E+01  0.51109989000E-03 0.  1.
     -623   -1    0    0    0    0  0.00000000000E+00  0.00000000000E+00  0.12525980253E-10  0.17130000000E+03  0.17130000000E+03 0. -1.
       11    1    1    2    0    0  0.48087893323E-02  0.56537208870E-02  0.57661586166E+00  0.57666385542E+00  0.51109989000E-03 0.  1.
     -623    1    1    2    0    0 -0.27371446512E-03 -0.42007958351E-04  0.67395417029E-04  0.17130000000E+03  0.17130000000E+03 0. -1.
      622    1    1    2    0    0 -0.45350748672E-02 -0.56117129286E-02  0.34233167103E+01  0.34233361443E+01  0.90000000000E-02 0.  1.
</event>
<event>
 5   0  0.6135700E+09  0.9118800E+02  0.7818608E-02  0.1180000E+00
       11   -1    0    0    0    0  0.00000000000E+00  0.00000000000E+00  0.39999999673E+01  0.40000000000E+01  0.51109989000E-03 0. -1.
     -623   -1    0    0    0    0  0.00000000000E+00  0.00000000000E+00  0.12525980253E-10  0.17130000000E+03  0.17130000000E+03 0. -1.
       11    1    1    2    0    0  0.97144941786E-03  0.23128387772E-03  0.70628749042E+00  0.70628838130E+00  0.51109989000E-03 0. -1.
     -623    1    1    2    0    0  0.29075647352E-04 -0.11231937359E-03  0.13308569369E-04  0.17130000000E+03  0.17130000000E+03 0. -1.
      622    1    1    2    0    0 -0.10005250654E-02 -0.11896450344E-03  0.32936991929E+01  0.32937116432E+01  0.90000000000E-02 0. -1.
</event>
<event>
 5   0  0.6135700E+09  0.9118800E+02  0.7818608E-02  0.1180000E+00
       11   -1    0    0    0    0  0.00000000000E+00  0.00000000000E+00  0.39999999673E+01  0.40000000000E+01  0.51109989000E-03 0.  1.
     -623   -1    0    0    0    0  0.00000000000E+00  0.00000000000E+00  0.12525980253E-10  0.17130000000E+03  0.17130000000E+03 0.  1.
       11    1    1    2    0    0  0.14177305654E-02 -0.62733056750E-03  0.12788331373E-01  0.12892096231E-01  0.51109989000E-03 0.  1.
     -623    1    1    2    0    0  0.20545831636E-03  0.13741978714E-03  0.11425069215E-03  0.17130000000E+03  0.17130000000E+03 0.  1.
      622    1    1    2    0    0 -0.16231888818E-02  0.48991078036E-03  0.39870973853E+01  0.39871079036E+01  0.90000000000E-02 0.  1.
</event>
<event>
 5   0  0.6135700E+09  0.9118800E+02  0.7818608E-02  0.1180000E+00
       11   -1    0    0    0    0  0.00000000000E+00  0.00000000000E+00  0.39999999673E+01  0.40000000000E+01  0.51109989000E-03 0. -1.
     -623   -1    0    0    0    0  0.00000000000E+00  0.00000000000E+00  0.12525980253E-10  0.17130000000E+03  0.17130000000E+03 0. -1.
       11    1    1    2    0    0 -0.44332089068E-02 -0.79055007650E-02  0.42849405311E+00  0.42859020644E+00  0.51109989000E-03 0. -1.
     -623    1    1    2    0    0  0.16184726180E-01  0.11410719193E-01  0.12965955657E-03  0.17130000114E+03  0.17130000000E+03 0. -1.
      622    1    1    2    0    0 -0.11751517296E-01 -0.35052184443E-02  0.35713762603E+01  0.35714086545E+01  0.90000000000E-02 0. -1.
</event>
<event>
 5   0  0.6135700E+09  0.9118800E+02  0.7818608E-02  0.1180000E+00
       11   -1    0    0    0    0  0.00000000000E+00  0.00000000000E+00  0.39999999673E+01  0.40000000000E+01  0.51109989000E-03 0. -1.
     -623   -1    0    0    0    0  0.00000000000E+00  0.00000000000E+00  0.12525980253E-10  0.17130000000E+03  0.17130000000E+03 0.  1.
       11    1    1    2    0    0  0.27748740242E-02 -0.16565343441E-02  0.83503432085E+00  0.83504073090E+00  0.51109989000E-03 0. -1.
     -623    1    1    2    0    0  0.42120780149E-03  0.63485301718E-03  0.20954166214E-04  0.17130000000E+03  0.17130000000E+03 0.  1.
      622    1    1    2    0    0 -0.31960818265E-02  0.10216813258E-02  0.31649446992E+01  0.31649592743E+01  0.90000000000E-02 0. -1.
</event>
<event>
 5   0  0.6135700E+09  0.9118800E+02  0.7818608E-02  0.1180000E+00
       11   -1    0    0    0    0  0.00000000000E+00  0.00000000000E+00  0.39999999673E+01  0.40000000000E+01  0.51109989000E-03 0. -1.
     -623   -1    0    0    0    0  0.00000000000E+00  0.00000000000E+00  0.12525980253E-10  0.17130000000E+03  0.17130000000E+03 0. -1.
       11    1    1    2    0    0 -0.56164814918E-03 -0.30348181678E-03  0.57683660907E-01  0.57689457498E-01  0.51109989000E-03 0. -1.
     -623    1    1    2    0    0 -0.22443489312E-04  0.10194569534E-03  0.16085581427E-04  0.17130000000E+03  0.17130000000E+03 0. -1.
      622    1    1    2    0    0  0.58409163849E-03  0.20153612143E-03  0.39423002209E+01  0.39423105425E+01  0.90000000000E-02 0. -1.
</event>
<event>
 5   0  0.6135700E+09  0.9118800E+02  0.7818608E-02  0.1180000E+00
       11   -1    0    0    0    0  0.00000000000E+00  0.00000000000E+00  0.39999999673E+01  0.40000000000E+01  0.51109989000E-03 0. -1.
     -623   -1    0    0    0    0  0.00000000000E+00  0.00000000000E+00  0.12525980253E-10  0.17130000000E+03  0.17130000000E+03 0.  1.
       11    1    1    2    0    0  0.32267469630E-02 -0.24501974949E-02  0.29174175983E+00  0.29177033951E+00  0.51109989000E-03 0. -1.
     -623    1    1    2    0    0 -0.18575405923E-04 -0.18126814467E-03  0.41790270250E-04  0.17130000000E+03  0.17130000000E+03 0.  1.
      622    1    1    2    0    0 -0.32081715571E-02  0.26314656397E-02  0.37082164196E+01  0.37082296627E+01  0.90000000000E-02 0. -1.
</event>
<event>
 5   0  0.6135700E+09  0.9118800E+02  0.7818608E-02  0.1180000E+00
       11   -1    0    0    0    0  0.00000000000E+00  0.00000000000E+00  0.39999999673E+01  0.40000000000E+01  0.51109989000E-03 0.  1.
     -623   -1    0    0    0    0  0.00000000000E+00  0.00000000000E+00  0.12525980253E-10  0.17130000000E+03  0.17130000000E+03 0.  1.
       11    1    1    2    0    0  0.17625179030E-02  0.53578106447E-02  0.11921704236E+01  0.11921838754E+01  0.51109989000E-03 0.  1.
     -623    1    1    2    0    0 -0.20267773867E-03 -0.59774998947E-03  0.32312511114E-04  0.17130000000E+03  0.17130000000E+03 0.  1.
      622    1    1    2    0    0 -0.15598401642E-02 -0.47600606549E-02  0.28077972338E+01  0.28078161260E+01  0.90000000000E-02 0.  0.
</event>
<event>
 5   0  0.6135700E+09  0.9118800E+02  0.7818608E-02  0.1180000E+00
       11   -1    0    0    0    0  0.00000000000E+00  0.00000000000E+00  0.39999999673E+01  0.40000000000E+01  0.51109989000E-03 0. -1.
     -623   -1    0    0    0    0  0.00000000000E+00  0.00000000000E+00  0.12525980253E-10  0.17130000000E+03  0.17130000000E+03 0. -1.
       11    1    1    2    0    0 -0.22584523847E-02 -0.15066999942E-02  0.25133587812E+00  0.25135106048E+00  0.51109989000E-03 0. -1.
     -623    1    1    2    0    0 -0.10998876483E-04  0.27285107276E-04  0.26932528754E-04  0.17130000000E+03  0.17130000000E+03 0. -1.
      622    1    1    2    0    0  0.22694512612E-02  0.14794148869E-02  0.37486371567E+01  0.37486489395E+01  0.90000000000E-02 0. -1.
</event>
<event>
 5   0  0.6135700E+09  0.9118800E+02  0.7818608E-02  0.1180000E+00
       11   -1    0    0    0    0  0.00000000000E+00  0.00000000000E+00  0.39999999673E+01  0.40000000000E+01  0.51109989000E-03 0. -1.
     -623   -1    0    0    0    0  0.00000000000E+00  0.00000000000E+00  0.12525980253E-10  0.17130000000E+03  0.17130000000E+03 0.  1.
       11    1    1    2    0    0  0.27976688954E-03 -0.87273928484E-03  0.18250006350E-01  0.18280150342E-01  0.51109989000E-03 0. -1.
     -623    1    1    2    0    0 -0.57861842529E-03 -0.28011427103E-03  0.40462171958E-04  0.17130000000E+03  0.17130000000E+03 0.  1.
      622    1    1    2    0    0  0.29885153574E-03  0.11528535559E-02  0.39817094988E+01  0.39817198484E+01  0.90000000000E-02 0. -1.
</event>
<event>
 5   0  0.6135700E+09  0.9118800E+02  0.7818608E-02  0.1180000E+00
       11   -1    0    0    0    0  0.00000000000E+00  0.00000000000E+00  0.39999999673E+01  0.40000000000E+01  0.51109989000E-03 0. -1.
     -623   -1    0    0    0    0  0.00000000000E+00  0.00000000000E+00  0.12525980253E-10  0.17130000000E+03  0.17130000000E+03 0.  1.
       11    1    1    2    0    0  0.49518586335E-02 -0.30094573846E-02  0.34214901504E+00  0.34219846209E+00  0.51109989000E-03 0. -1.
     -623    1    1    2    0    0 -0.21443837649E-02 -0.13455450522E-02  0.64175336914E-04  0.17130000002E+03  0.17130000000E+03 0.  1.
      622    1    1    2    0    0 -0.28074748677E-02  0.43550024374E-02  0.36577867787E+01  0.36578015209E+01  0.90000000000E-02 0. -1.
</event>
<event>
 5   0  0.6135700E+09  0.9118800E+02  0.7818608E-02  0.1180000E+00
       11   -1    0    0    0    0  0.00000000000E+00  0.00000000000E+00  0.39999999673E+01  0.40000000000E+01  0.51109989000E-03 0. -1.
     -623   -1    0    0    0    0  0.00000000000E+00  0.00000000000E+00  0.12525980253E-10  0.17130000000E+03  0.17130000000E+03 0. -1.
       11    1    1    2    0    0 -0.31102952335E-02  0.30512334137E-02  0.36276046892E-02  0.56925125839E-02  0.51109989000E-03 0. -1.
     -623    1    1    2    0    0  0.22823445985E-02 -0.16229116182E-02  0.20753913491E-02  0.17130000004E+03  0.17130000000E+03 0. -1.
      622    1    1    2    0    0  0.82795063501E-03 -0.14283217954E-02  0.39942969713E+01  0.39943074520E+01  0.90000000000E-02 0. -1.
</event>
<event>
 5   0  0.6135700E+09  0.9118800E+02  0.7818608E-02  0.1180000E+00
       11   -1    0    0    0    0  0.00000000000E+00  0.00000000000E+00  0.39999999673E+01  0.40000000000E+01  0.51109989000E-03 0. -1.
     -623   -1    0    0    0    0  0.00000000000E+00  0.00000000000E+00  0.12525980253E-10  0.17130000000E+03  0.17130000000E+03 0.  1.
       11    1    1    2    0    0 -0.10337514198E-02  0.70295631385E-03  0.57134493858E-01  0.57150454076E-01  0.51109989000E-03 0. -1.
     -623    1    1    2    0    0  0.77552020502E-03 -0.13627433550E-02  0.26270188025E-04  0.17130000001E+03  0.17130000000E+03 0.  1.
      622    1    1    2    0    0  0.25823121189E-03  0.65978704627E-03  0.39428392182E+01  0.39428495537E+01  0.90000000000E-02 0. -1.
</event>
<event>
 5   0  0.6135700E+09  0.9118800E+02  0.7818608E-02  0.1180000E+00
       11   -1    0    0    0    0  0.00000000000E+00  0.00000000000E+00  0.39999999673E+01  0.40000000000E+01  0.51109989000E-03 0.  1.
     -623   -1    0    0    0    0  0.00000000000E+00  0.00000000000E+00  0.12525980253E-10  0.17130000000E+03  0.17130000000E+03 0. -1.
       11    1    1    2    0    0 -0.21437106886E-02  0.12334159951E-02  0.18369097391E-01  0.18541892354E-01  0.51109989000E-03 0. -1.
     -623    1    1    2    0    0  0.15359984448E-02 -0.16692211208E-02  0.18301983606E-03  0.17130000002E+03  0.17130000000E+03 0. -1.
      622    1    1    2    0    0  0.60771224387E-03  0.43580512574E-03  0.39814478501E+01  0.39814580925E+01  0.90000000000E-02 0.  1.
</event>
<event>
 5   0  0.6135700E+09  0.9118800E+02  0.7818608E-02  0.1180000E+00
       11   -1    0    0    0    0  0.00000000000E+00  0.00000000000E+00  0.39999999673E+01  0.40000000000E+01  0.51109989000E-03 0. -1.
     -623   -1    0    0    0    0  0.00000000000E+00  0.00000000000E+00  0.12525980253E-10  0.17130000000E+03  0.17130000000E+03 0. -1.
       11    1    1    2    0    0  0.49111206228E-04 -0.26511350588E-01  0.50978633855E+00  0.51047549041E+00  0.51109989000E-03 0. -1.
     -623    1    1    2    0    0 -0.13409048380E-04 -0.16418843376E-02  0.81430677197E-03  0.17130000001E+03  0.17130000000E+03 0. -1.
      622    1    1    2    0    0 -0.35702157848E-04  0.28153234926E-01  0.34893993220E+01  0.34895244998E+01  0.90000000000E-02 0. -1.
</event>
<event>
 5   0  0.6135700E+09  0.9118800E+02  0.7818608E-02  0.1180000E+00
       11   -1    0    0    0    0  0.00000000000E+00  0.00000000000E+00  0.39999999673E+01  0.40000000000E+01  0.51109989000E-03 0.  1.
     -623   -1    0    0    0    0  0.00000000000E+00  0.00000000000E+00  0.12525980253E-10  0.17130000000E+03  0.17130000000E+03 0. -1.
       11    1    1    2    0    0 -0.53262355373E-02  0.48382808758E-02  0.37736652265E+00  0.37743546652E+00  0.51109989000E-03 0.  1.
     -623    1    1    2    0    0 -0.25922456042E-03 -0.72528972853E-04  0.87532263755E-04  0.17130000000E+03  0.17130000000E+03 0. -1.
      622    1    1    2    0    0  0.55854600978E-02 -0.47657519029E-02  0.36225459136E+01  0.36225645344E+01  0.90000000000E-02 0.  1.
</event>
<event>
 5   0  0.6135700E+09  0.9118800E+02  0.7818608E-02  0.1180000E+00
       11   -1    0    0    0    0  0.00000000000E+00  0.00000000000E+00  0.39999999673E+01  0.40000000000E+01  0.51109989000E-03 0. -1.
     -623   -1    0    0    0    0  0.00000000000E+00  0.00000000000E+00  0.12525980253E-10  0.17130000000E+03  0.17130000000E+03 0. -1.
       11    1    1    2    0    0 -0.25553388515E-02  0.26741905376E-02  0.62609907203E+00  0.62611020616E+00  0.51109989000E-03 0. -1.
     -623    1    1    2    0    0 -0.64401072145E-04 -0.48429101497E-04  0.25144340371E-04  0.17130000000E+03  0.17130000000E+03 0. -1.
      622    1    1    2    0    0  0.26197399237E-02 -0.26257614361E-02  0.33738757510E+01  0.33738897938E+01  0.90000000000E-02 0. -1.
</event>
<event>
 5   0  0.6135700E+09  0.9118800E+02  0.7818608E-02  0.1180000E+00
       11   -1    0    0    0    0  0.00000000000E+00  0.00000000000E+00  0.39999999673E+01  0.40000000000E+01  0.51109989000E-03 0. -1.
     -623   -1    0    0    0    0  0.00000000000E+00  0.00000000000E+00  0.12525980253E-10  0.17130000000E+03  0.17130000000E+03 0.  1.
       11    1    1    2    0    0 -0.10698267399E-02 -0.11691260541E-02  0.28975147053E-02  0.33418856277E-02  0.51109989000E-03 0. -1.
     -623    1    1    2    0    0 -0.19738284994E-02  0.10899020668E-02  0.45564694272E-03  0.17130000002E+03  0.17130000000E+03 0.  1.
      622    1    1    2    0    0  0.30436552396E-02  0.79223987207E-04  0.39966468062E+01  0.39966580994E+01  0.90000000000E-02 0. -1.
</event>
<event>
 5   0  0.6135700E+09  0.9118800E+02  0.7818608E-02  0.1180000E+00
       11   -1    0    0    0    0  0.00000000000E+00  0.00000000000E+00  0.39999999673E+01  0.40000000000E+01  0.51109989000E-03 0. -1.
     -623   -1    0    0    0    0  0.00000000000E+00  0.00000000000E+00  0.12525980253E-10  0.17130000000E+03  0.17130000000E+03 0. -1.
       11    1    1    2    0    0 -0.81624098539E-03  0.11637147169E-02  0.22083467143E+00  0.22083983746E+00  0.51109989000E-03 0. -1.
     -623    1    1    2    0    0  0.22738289337E-03 -0.17492604569E-02  0.15950392869E-04  0.17130000001E+03  0.17130000000E+03 0. -1.
      622    1    1    2    0    0  0.58885809202E-03  0.58554573992E-03  0.37791493455E+01  0.37791601535E+01  0.90000000000E-02 0. -1.
</event>
<event>
 5   0  0.6135700E+09  0.9118800E+02  0.7818608E-02  0.1180000E+00
       11   -1    0    0    0    0  0.00000000000E+00  0.00000000000E+00  0.39999999673E+01  0.40000000000E+01  0.51109989000E-03 0. -1.
     -623   -1    0    0    0    0  0.00000000000E+00  0.00000000000E+00  0.12525980253E-10  0.17130000000E+03  0.17130000000E+03 0. -1.
       11    1    1    2    0    0  0.44177439034E-02 -0.26726251609E-01  0.64932276722E+00  0.64988777972E+00  0.51109989000E-03 0. -1.
     -623    1    1    2    0    0  0.23205005022E-02  0.17461437896E-01  0.59756340591E-03  0.17130000091E+03  0.17130000000E+03 0. -1.
      622    1    1    2    0    0 -0.67382444057E-02  0.92648137123E-02  0.33500796367E+01  0.33501113136E+01  0.90000000000E-02 0. -1.
</event>
<event>
 5   0  0.6135700E+09  0.9118800E+02  0.7818608E-02  0.1180000E+00
       11   -1    0    0    0    0  0.00000000000E+00  0.00000000000E+00  0.39999999673E+01  0.40000000000E+01  0.51109989000E-03 0.  1.
     -623   -1    0    0    0    0  0.00000000000E+00  0.00000000000E+00  0.12525980253E-10  0.17130000000E+03  0.17130000000E+03 0. -1.
       11    1    1    2    0    0  0.41988448303E-02 -0.15572389438E-02  0.16773596014E+00  0.16779651021E+00  0.51109989000E-03 0.  1.
     -623    1    1    2    0    0 -0.94247682065E-04  0.53619379752E-03  0.73420862278E-04  0.17130000000E+03  0.17130000000E+03 0. -1.
      622    1    1    2    0    0 -0.41045971481E-02  0.10210451452E-02  0.38321905948E+01  0.38322034974E+01  0.90000000000E-02 0.  1.
</event>
<event>
 5   0  0.6135700E+09  0.9118800E+02  0.7818608E-02  0.1180000E+00
       11   -1    0    0    0    0  0.00000000000E+00  0.00000000000E+00  0.39999999673E+01  0.40000000000E+01  0.51109989000E-03 0.  1.
     -623   -1    0    0    0    0  0.00000000000E+00  0.00000000000E+00  0.12525980253E-10  0.17130000000E+03  0.17130000000E+03 0.  1.
       11    1    1    2    0    0  0.30577604291E-03  0.39522796431E-03  0.40782974801E-01  0.40789238273E-01  0.51109989000E-03 0.  1.
     -623    1    1    2    0    0  0.16308109975E-03 -0.12333713795E-03  0.16497377230E-04  0.17130000000E+03  0.17130000000E+03 0.  1.
      622    1    1    2    0    0 -0.46885714266E-03 -0.27189082636E-03  0.39592004952E+01  0.39592107616E+01  0.90000000000E-02 0.  1.
</event>
<event>
 5   0  0.6135700E+09  0.9118800E+02  0.7818608E-02  0.1180000E+00
       11   -1    0    0    0    0  0.00000000000E+00  0.00000000000E+00  0.39999999673E+01  0.40000000000E+01  0.51109989000E-03 0. -1.
     -623   -1    0    0    0    0  0.00000000000E+00  0.00000000000E+00  0.12525980253E-10  0.17130000000E+03  0.17130000000E+03 0. -1.
       11    1    1    2    0    0  0.18502055522E-02 -0.86719610874E-03  0.72415361527E-01  0.72445987442E-01  0.51109989000E-03 0. -1.
     -623    1    1    2    0    0  0.33011854213E-03  0.17471811208E-02  0.41618054313E-04  0.17130000001E+03  0.17130000000E+03 0. -1.
      622    1    1    2    0    0 -0.21803240943E-02 -0.87998501203E-03  0.39275429878E+01  0.39275540033E+01  0.90000000000E-02 0. -1.
</event>
<event>
 5   0  0.6135700E+09  0.9118800E+02  0.7818608E-02  0.1180000E+00
       11   -1    0    0    0    0  0.00000000000E+00  0.00000000000E+00  0.39999999673E+01  0.40000000000E+01  0.51109989000E-03 0. -1.
     -623   -1    0    0    0    0  0.00000000000E+00  0.00000000000E+00  0.12525980253E-10  0.17130000000E+03  0.17130000000E+03 0.  1.
       11    1    1    2    0    0 -0.15384825728E-02  0.12072781899E-03  0.14054911932E+00  0.14055852044E+00  0.51109989000E-03 0. -1.
     -623    1    1    2    0    0  0.65842143370E-03  0.15796366071E-02  0.20345698989E-04  0.17130000001E+03  0.17130000000E+03 0.  1.
      622    1    1    2    0    0  0.88006113683E-03 -0.17003644316E-02  0.38594305161E+01  0.38594414848E+01  0.90000000000E-02 0. -1.
</event>
<event>
 5   0  0.6135700E+09  0.9118800E+02  0.7818608E-02  0.1180000E+00
       11   -1    0    0    0    0  0.00000000000E+00  0.00000000000E+00  0.39999999673E+01  0.40000000000E+01  0.51109989000E-03 0.  1.
     -623   -1    0    0    0    0  0.00000000000E+00  0.00000000000E+00  0.12525980253E-10  0.17130000000E+03  0.17130000000E+03 0.  1.
       11    1    1    2    0    0 -0.52082504646E-04  0.67787612950E-03  0.37841525370E+00  0.37841620960E+00  0.51109989000E-03 0.  1.
     -623    1    1    2    0    0  0.36293002743E-04 -0.18907112668E-05  0.12169352100E-04  0.17130000000E+03  0.17130000000E+03 0.  1.
      622    1    1    2    0    0  0.15789502026E-04 -0.67598541824E-03  0.36215725307E+01  0.36215837768E+01  0.90000000000E-02 0.  1.
</event>
<event>
 5   0  0.6135700E+09  0.9118800E+02  0.7818608E-02  0.1180000E+00
       11   -1    0    0    0    0  0.00000000000E+00  0.00000000000E+00  0.39999999673E+01  0.40000000000E+01  0.51109989000E-03 0. -1.
     -623   -1    0    0    0    0  0.00000000000E+00  0.00000000000E+00  0.12525980253E-10  0.17130000000E+03  0.17130000000E+03 0.  1.
       11    1    1    2    0    0  0.17732499618E-02 -0.91910419084E-03  0.54782478067E-01  0.54821257672E-01  0.51109989000E-03 0. -1.
     -623    1    1    2    0    0 -0.22549112875E-04 -0.21500989500E-03  0.49564271147E-04  0.17130000000E+03  0.17130000000E+03 0.  1.
      622    1    1    2    0    0 -0.17507008489E-02  0.11341140858E-02  0.39451679250E+01  0.39451787422E+01  0.90000000000E-02 0. -1.
</event>
<event>
 5   0  0.6135700E+09  0.9118800E+02  0.7818608E-02  0.1180000E+00
       11   -1    0    0    0    0  0.00000000000E+00  0.00000000000E+00  0.39999999673E+01  0.40000000000E+01  0.51109989000E-03 0. -1.
     -623   -1    0    0    0    0  0.00000000000E+00  0.00000000000E+00  0.12525980253E-10  0.17130000000E+03  0.17130000000E+03 0. -1.
       11    1    1    2    0    0  0.12224201698E-02 -0.89759194196E-02  0.89325367510E+00  0.89329975414E+00  0.51109989000E-03 0. -1.
     -623    1    1    2    0    0 -0.15130940341E-02 -0.20346183916E-02  0.78626658547E-04  0.17130000002E+03  0.17130000000E+03 0. -1.
      622    1    1    2    0    0  0.29067386377E-03  0.11010537810E-01  0.31066676642E+01  0.31067002257E+01  0.90000000000E-02 0. -1.
</event>
<event>
 5   0  0.6135700E+09  0.9118800E+02  0.7818608E-02  0.1180000E+00
       11   -1    0    0    0    0  0.00000000000E+00  0.00000000000E+00  0.39999999673E+01  0.40000000000E+01  0.51109989000E-03 0.  1.
     -623   -1    0    0    0    0  0.00000000000E+00  0.00000000000E+00  0.12525980253E-10  0.17130000000E+03  0.17130000000E+03 0. -1.
       11    1    1    2    0    0 -0.38403003154E-02  0.13654705301E-02  0.45133889156E+00  0.45135758405E+00  0.51109989000E-03 0.  1.
     -623    1    1    2    0    0  0.18879648584E-02 -0.25616753613E-04  0.30873083885E-04  0.17130000001E+03  0.17130000000E+03 0. -1.
      622    1    1    2    0    0  0.19523354501E-02 -0.13398537764E-02  0.35486302172E+01  0.35486424200E+01  0.90000000000E-02 0.  1.
</event>
<event>
 5   0  0.6135700E+09  0.9118800E+02  0.7818608E-02  0.1180000E+00
       11   -1    0    0    0    0  0.00000000000E+00  0.00000000000E+00  0.39999999673E+01  0.40000000000E+01  0.51109989000E-03 0. -1.
     -623   -1    0    0    0    0  0.00000000000E+00  0.00000000000E+00  0.12525980253E-10  0.17130000000E+03  0.17130000000E+03 0.  1.
       11    1    1    2    0    0 -0.91937463141E-03  0.20041694923E-02  0.15586548043E+00  0.15588191415E+00  0.51109989000E-03 0. -1.
     -623    1    1    2    0    0  0.15094128132E-02 -0.28031433578E-02  0.27094568192E-04  0.17130000003E+03  0.17130000000E+03 0.  1.
      622    1    1    2    0    0 -0.59003818348E-03  0.79897386858E-03  0.38441073968E+01  0.38441180607E+01  0.90000000000E-02 0. -1.
</event>
<event>
 5   0  0.6135700E+09  0.9118800E+02  0.7818608E-02  0.1180000E+00
       11   -1    0    0    0    0  0.00000000000E+00  0.00000000000E+00  0.39999999673E+01  0.40000000000E+01  0.51109989000E-03 0. -1.
     -623   -1    0    0    0    0  0.00000000000E+00  0.00000000000E+00  0.12525980253E-10  0.17130000000E+03  0.17130000000E+03 0.  1.
       11    1    1    2    0    0  0.63993217951E-02  0.90280547243E-03  0.35075544441E+00  0.35081534941E+00  0.51109989000E-03 0. -1.
     -623    1    1    2    0    0 -0.10242239172E-01 -0.10235448384E-02  0.73305489615E-04  0.17130000031E+03  0.17130000000E+03 0.  1.
      622    1    1    2    0    0  0.38429173770E-02  0.12073936596E-03  0.36491712175E+01  0.36491843413E+01  0.90000000000E-02 0. -1.
</event>
<event>
 5   0  0.6135700E+09  0.9118800E+02  0.7818608E-02  0.1180000E+00
       11   -1    0    0    0    0  0.00000000000E+00  0.00000000000E+00  0.39999999673E+01  0.40000000000E+01  0.51109989000E-03 0.  1.
     -623   -1    0    0    0    0  0.00000000000E+00  0.00000000000E+00  0.12525980253E-10  0.17130000000E+03  0.17130000000E+03 0. -1.
       11    1    1    2    0    0  0.49696172382E-03 -0.13978194245E-02  0.19734969164E+00  0.19735592944E+00  0.51109989000E-03 0.  1.
     -623    1    1    2    0    0 -0.40376193000E-03  0.32898983392E-04  0.17102235565E-04  0.17130000000E+03  0.17130000000E+03 0. -1.
      622    1    1    2    0    0 -0.93199793821E-04  0.13649204411E-02  0.38026331735E+01  0.38026440701E+01  0.90000000000E-02 0.  1.
</event>
<event>
 5   0  0.6135700E+09  0.9118800E+02  0.7818608E-02  0.1180000E+00
       11   -1    0    0    0    0  0.00000000000E+00  0.00000000000E+00  0.39999999673E+01  0.40000000000E+01  0.51109989000E-03 0. -1.
     -623   -1    0    0    0    0  0.00000000000E+00  0.00000000000E+00  0.12525980253E-10  0.17130000000E+03  0.17130000000E+03 0.  1.
       11    1    1    2    0    0 -0.13338035743E-02 -0.35472607603E-02  0.29367209162E+00  0.29369698792E+00  0.51109989000E-03 0. -1.
     -623    1    1    2    0    0 -0.50244602422E-04  0.15845997430E-05  0.37745448470E-04  0.17130000000E+03  0.17130000000E+03 0.  1.
      622    1    1    2    0    0  0.13840481768E-02  0.35456761606E-02  0.37062901373E+01  0.37063030191E+01  0.90000000000E-02 0. -1.
</event>
<event>
 5   0  0.6135700E+09  0.9118800E+02  0.7818608E-02  0.1180000E+00
       11   -1    0    0    0    0  0.00000000000E+00  0.00000000000E+00  0.39999999673E+01  0.40000000000E+01  0.51109989000E-03 0.  1.
     -623   -1    0    0    0    0  0.00000000000E+00  0.00000000000E+00  0.12525980253E-10  0.17130000000E+03  0.17130000000E+03 0.  1.
       11    1    1    2    0    0  0.26790588432E-03  0.85467049267E-03  0.79248810917E-01  0.79255520249E-01  0.51109989000E-03 0.  1.
     -623    1    1    2    0    0 -0.35477213093E-03  0.58343781989E-04  0.17114023631E-04  0.17130000000E+03  0.17130000000E+03 0.  1.
      622    1    1    2    0    0  0.86866246445E-04 -0.91301427463E-03  0.39207340405E+01  0.39207444774E+01  0.90000000000E-02 0.  1.
</event>
<event>
 5   0  0.6135700E+09  0.9118800E+02  0.7818608E-02  0.1180000E+00
       11   -1    0    0    0    0  0.00000000000E+00  0.00000000000E+00  0.39999999673E+01  0.40000000000E+01  0.51109989000E-03 0.  1.
     -623   -1    0    0    0    0  0.00000000000E+00  0.00000000000E+00  0.12525980253E-10  0.17130000000E+03  0.17130000000E+03 0. -1.
       11    1    1    2    0    0 -0.12913511849E-03 -0.31958079955E-04  0.19055596447E+00  0.19055669633E+00  0.51109989000E-03 0.  1.
     -623    1    1    2    0    0  0.28970643442E-03  0.10585832551E-04  0.11334393466E-04  0.17130000000E+03  0.17130000000E+03 0. -1.
      622    1    1    2    0    0 -0.16057131593E-03  0.21372247404E-04  0.38094326685E+01  0.38094433034E+01  0.90000000000E-02 0.  1.
</event>
<event>
 5   0  0.6135700E+09  0.9118800E+02  0.7818608E-02  0.1180000E+00
       11   -1    0    0    0    0  0.00000000000E+00  0.00000000000E+00  0.39999999673E+01  0.40000000000E+01  0.51109989000E-03 0. -1.
     -623   -1    0    0    0    0  0.00000000000E+00  0.00000000000E+00  0.12525980253E-10  0.17130000000E+03  0.17130000000E+03 0.  1.
       11    1    1    2    0    0 -0.46203249211E-02 -0.36901108358E-02  0.44459217842E+00  0.44463179223E+00  0.51109989000E-03 0. -1.
     -623    1    1    2    0    0  0.45647486596E-02 -0.28027937905E-02  0.56985377543E-04  0.17130000008E+03  0.17130000000E+03 0.  1.
      622    1    1    2    0    0  0.55576261480E-04  0.64929046263E-02  0.35553508036E+01  0.35553681240E+01  0.90000000000E-02 0. -1.
</event>
<event>
 5   0  0.6135700E+09  0.9118800E+02  0.7818608E-02  0.1180000E+00
       11   -1    0    0    0    0  0.00000000000E+00  0.00000000000E+00  0.39999999673E+01  0.40000000000E+01  0.51109989000E-03 0.  1.
     -623   -1    0    0    0    0  0.00000000000E+00  0.00000000000E+00  0.12525980253E-10  0.17130000000E+03  0.17130000000E+03 0. -1.
       11    1    1    2    0    0  0.49902599416E-02 -0.15023550978E-02  0.22704307640E+00  0.22710345556E+00  0.51109989000E-03 0.  1.
     -623    1    1    2    0    0  0.38665176807E-02 -0.29895101909E-02  0.84220251671E-04  0.17130000007E+03  0.17130000000E+03 0. -1.
      622    1    1    2    0    0 -0.88567776250E-02  0.44918652907E-02  0.37728726734E+01  0.37728964774E+01  0.90000000000E-02 0.  1.
</event>
<event>
 5   0  0.6135700E+09  0.9118800E+02  0.7818608E-02  0.1180000E+00
       11   -1    0    0    0    0  0.00000000000E+00  0.00000000000E+00  0.39999999673E+01  0.40000000000E+01  0.51109989000E-03 0. -1.
     -623   -1    0    0    0    0  0.00000000000E+00  0.00000000000E+00  0.12525980253E-10  0.17130000000E+03  0.17130000000E+03 0. -1.
       11    1    1    2    0    0  0.94292321420E-03  0.50063725096E-03  0.11979805470E+00  0.11980390175E+00  0.51109989000E-03 0. -1.
     -623    1    1    2    0    0 -0.91247420969E-03  0.10948823276E-03  0.16302596000E-04  0.17130000000E+03  0.17130000000E+03 0. -1.
      622    1    1    2    0    0 -0.30449002790E-04 -0.61012548393E-03  0.38801856176E+01  0.38801961033E+01  0.90000000000E-02 0. -1.
</event>
<event>
 5   0  0.6135700E+09  0.9118800E+02  0.7818608E-02  0.1180000E+00
       11   -1    0    0    0    0  0.00000000000E+00  0.00000000000E+00  0.39999999673E+01  0.40000000000E+01  0.51109989000E-03 0.  1.
     -623   -1    0    0    0    0  0.00000000000E+00  0.00000000000E+00  0.12525980253E-10  0.17130000000E+03  0.17130000000E+03 0. -1.
       11    1    1    2    0    0  0.62681281183E-03  0.64590427646E-03  0.21631040964E+00  0.21631288595E+00  0.51109989000E-03 0.  1.
     -623    1    1    2    0    0 -0.72493211456E-03 -0.59000910858E-03  0.13151766249E-04  0.17130000000E+03  0.17130000000E+03 0. -1.
      622    1    1    2    0    0  0.98119305047E-04 -0.55895166002E-04  0.37836764187E+01  0.37836871242E+01  0.90000000000E-02 0.  1.
</event>
<event>
 5   0  0.6135700E+09  0.9118800E+02  0.7818608E-02  0.1180000E+00
       11   -1    0    0    0    0  0.00000000000E+00  0.00000000000E+00  0.39999999673E+01  0.40000000000E+01  0.51109989000E-03 0. -1.
     -623   -1    0    0    0    0  0.00000000000E+00  0.00000000000E+00  0.12525980253E-10  0.17130000000E+03  0.17130000000E+03 0.  1.
       11    1    1    2    0    0  0.24119146300E-02 -0.10383603652E-01  0.10965182428E+01  0.10965701777E+01  0.51109989000E-03 0. -1.
     -623    1    1    2    0    0  0.13131589967E-02 -0.26415507774E-03  0.87770637234E-04  0.17130000001E+03  0.17130000000E+03 0.  1.
      622    1    1    2    0    0 -0.37250736267E-02  0.10647758730E-01  0.29033939539E+01  0.29034298170E+01  0.90000000000E-02 0. -1.
</event>
<event>
 5   0  0.6135700E+09  0.9118800E+02  0.7818608E-02  0.1180000E+00
       11   -1    0    0    0    0  0.00000000000E+00  0.00000000000E+00  0.39999999673E+01  0.40000000000E+01  0.51109989000E-03 0. -1.
     -623   -1    0    0    0    0  0.00000000000E+00  0.00000000000E+00  0.12525980253E-10  0.17130000000E+03  0.17130000000E+03 0.  1.
       11    1    1    2    0    0 -0.11222010007E-01  0.72642079988E-02  0.89554538190E+00  0.89564529502E+00  0.51109989000E-03 0. -1.
     -623    1    1    2    0    0  0.47320833707E-02 -0.69992126140E-02  0.11993031917E-03  0.17130000021E+03  0.17130000000E+03 0.  1.
      622    1    1    2    0    0  0.64899266364E-02 -0.26499538472E-03  0.31043346551E+01  0.31043544966E+01  0.90000000000E-02 0. -1.
</event>
<event>
 5   0  0.6135700E+09  0.9118800E+02  0.7818608E-02  0.1180000E+00
       11   -1    0    0    0    0  0.00000000000E+00  0.00000000000E+00  0.39999999673E+01  0.40000000000E+01  0.51109989000E-03 0. -1.
     -623   -1    0    0    0    0  0.00000000000E+00  0.00000000000E+00  0.12525980253E-10  0.17130000000E+03  0.17130000000E+03 0. -1.
       11    1    1    2    0    0  0.28360997055E-02  0.54477733337E-02  0.39562783085E+00  0.39567583128E+00  0.51109989000E-03 0. -1.
     -623    1    1    2    0    0 -0.21421804927E-02 -0.33910073597E-02  0.59904918063E-04  0.17130000005E+03  0.17130000000E+03 0. -1.
      622    1    1    2    0    0 -0.69391921213E-03 -0.20567659729E-02  0.36043122328E+01  0.36043241230E+01  0.90000000000E-02 0.  0.
</event>
<event>
 5   0  0.6135700E+09  0.9118800E+02  0.7818608E-02  0.1180000E+00
       11   -1    0    0    0    0  0.00000000000E+00  0.00000000000E+00  0.39999999673E+01  0.40000000000E+01  0.51109989000E-03 0.  1.
     -623   -1    0    0    0    0  0.00000000000E+00  0.00000000000E+00  0.12525980253E-10  0.17130000000E+03  0.17130000000E+03 0. -1.
       11    1    1    2    0    0 -0.25012843061E-02 -0.45928463253E-02  0.73206689856E+00  0.73208575717E+00  0.51109989000E-03 0.  1.
     -623    1    1    2    0    0 -0.46414570492E-03  0.22597694458E-02  0.33413068084E-04  0.17130000002E+03  0.17130000000E+03 0. -1.
      622    1    1    2    0    0  0.29654300110E-02  0.23330768796E-02  0.32678996557E+01  0.32679142273E+01  0.90000000000E-02 0.  1.
</event>
<event>
 5   0  0.6135700E+09  0.9118800E+02  0.7818608E-02  0.1180000E+00
       11   -1    0    0    0    0  0.00000000000E+00  0.00000000000E+00  0.39999999673E+01  0.40000000000E+01  0.51109989000E-03 0.  1.
     -623   -1    0    0    0    0  0.00000000000E+00  0.00000000000E+00  0.12525980253E-10  0.17130000000E+03  0.17130000000E+03 0. -1.
       11    1    1    2    0    0 -0.45564627998E-02  0.11894526341E-03  0.61954259772E-01  0.62123804022E-01  0.51109989000E-03 0.  1.
     -623    1    1    2    0    0 -0.22764216925E-03  0.13361094215E-03  0.18271085517E-03  0.17130000000E+03  0.17130000000E+03 0. -1.
      622    1    1    2    0    0  0.47841049690E-02 -0.25255620556E-03  0.39378629967E+01  0.39378761957E+01  0.90000000000E-02 0.  1.
</event>
<event>
 5   0  0.6135700E+09  0.9118800E+02  0.7818608E-02  0.1180000E+00
       11   -1    0    0    0    0  0.00000000000E+00  0.00000000000E+00  0.39999999673E+01  0.40000000000E+01  0.51109989000E-03 0.  1.
     -623   -1    0    0    0    0  0.00000000000E+00  0.00000000000E+00  0.12525980253E-10  0.17130000000E+03  0.17130000000E+03 0.  1.
       11    1    1    2    0    0 -0.74141141855E-03  0.23602243742E-03  0.47061338599E-01  0.47070545050E-01  0.51109989000E-03 0.  1.
     -623    1    1    2    0    0  0.45681835291E-03 -0.66143393229E-03  0.19454413581E-04  0.17130000000E+03  0.17130000000E+03 0.  1.
      622    1    1    2    0    0  0.28459306584E-03  0.42541149458E-03  0.39529191726E+01  0.39529294513E+01  0.90000000000E-02 0.  1.
</event>
<event>
 5   0  0.6135700E+09  0.9118800E+02  0.7818608E-02  0.1180000E+00
       11   -1    0    0    0    0  0.00000000000E+00  0.00000000000E+00  0.39999999673E+01  0.40000000000E+01  0.51109989000E-03 0. -1.
     -623   -1    0    0    0    0  0.00000000000E+00  0.00000000000E+00  0.12525980253E-10  0.17130000000E+03  0.17130000000E+03 0.  1.
       11    1    1    2    0    0  0.16087207881E-02  0.17768408400E-02  0.46865795945E+00  0.46866436745E+00  0.51109989000E-03 0. -1.
     -623    1    1    2    0    0 -0.13856786421E-05 -0.10946721775E-03  0.18603609572E-04  0.17130000000E+03  0.17130000000E+03 0.  1.
      622    1    1    2    0    0 -0.16073351094E-02 -0.16673736222E-02  0.35313234043E+01  0.35313356325E+01  0.90000000000E-02 0. -1.
</event>
<event>
 5   0  0.6135700E+09  0.9118800E+02  0.7818608E-02  0.1180000E+00
       11   -1    0    0    0    0  0.00000000000E+00  0.00000000000E+00  0.39999999673E+01  0.40000000000E+01  0.51109989000E-03 0.  1.
     -623   -1    0    0    0    0  0.00000000000E+00  0.00000000000E+00  0.12525980253E-10  0.17130000000E+03  0.17130000000E+03 0.  1.
       11    1    1    2    0    0 -0.25987726448E-02  0.40212908308E-03  0.18364608760E+00  0.18366562564E+00  0.51109989000E-03 0.  1.
     -623    1    1    2    0    0  0.17478614371E-02 -0.25208083205E-02  0.30828125777E-04  0.17130000003E+03  0.17130000000E+03 0.  1.
      622    1    1    2    0    0  0.85091121102E-03  0.21186792327E-02  0.38163230441E+01  0.38163343394E+01  0.90000000000E-02 0.  1.
</event>
<event>
 5   0  0.6135700E+09  0.9118800E+02  0.7818608E-02  0.1180000E+00
       11   -1    0    0    0    0  0.00000000000E+00  0.00000000000E+00  0.39999999673E+01  0.40000000000E+01  0.51109989000E-03 0.  1.
     -623   -1    0    0    0    0  0.00000000000E+00  0.00000000000E+00  0.12525980253E-10  0.17130000000E+03  0.17130000000E+03 0.  1.
       11    1    1    2    0    0  0.90290912858E-02 -0.31548103764E-02  0.28870393598E+00  0.28886277225E+00  0.51109989000E-03 0.  1.
     -623    1    1    2    0    0 -0.12615726192E-03  0.35111706122E-03  0.18145533153E-03  0.17130000000E+03  0.17130000000E+03 0.  1.
      622    1    1    2    0    0 -0.89029340238E-02  0.28036933151E-02  0.37111145760E+01  0.37111372272E+01  0.90000000000E-02 0.  1.
</event>
<event>
 5   0  0.6135700E+09  0.9118800E+02  0.7818608E-02  0.1180000E+00
       11   -1    0    0    0    0  0.00000000000E+00  0.00000000000E+00  0.39999999673E+01  0.40000000000E+01  0.51109989000E-03 0.  1.
     -623   -1    0    0    0    0  0.00000000000E+00  0.00000000000E+00  0.12525980253E-10  0.17130000000E+03  0.17130000000E+03 0.  1.
       11    1    1    2    0    0 -0.88047353163E-04  0.22679955437E-02  0.41884918134E-01  0.41949483232E-01  0.51109989000E-03 0. -1.
     -623    1    1    2    0    0  0.19291208291E-03 -0.83188860881E-03  0.75028848663E-04  0.17130000000E+03  0.17130000000E+03 0.  1.
      622    1    1    2    0    0 -0.10486472975E-03 -0.14361069349E-02  0.39580400204E+01  0.39580505146E+01  0.90000000000E-02 0.  1.
</event>
<event>
 5   0  0.6135700E+09  0.9118800E+02  0.7818608E-02  0.1180000E+00
       11   -1    0    0    0    0  0.00000000000E+00  0.00000000000E+00  0.39999999673E+01  0.40000000000E+01  0.51109989000E-03 0. -1.
     -623   -1    0    0    0    0  0.00000000000E+00  0.00000000000E+00  0.12525980253E-10  0.17130000000E+03  0.17130000000E+03 0.  1.
       11    1    1    2    0    0 -0.31612625659E-02 -0.35208128181E-02  0.60297758303E+00  0.60299636529E+00  0.51109989000E-03 0. -1.
     -623    1    1    2    0    0  0.25433235658E-02 -0.55938007936E-03  0.33198321331E-04  0.17130000002E+03  0.17130000000E+03 0.  1.
      622    1    1    2    0    0  0.61793900012E-03  0.40801928974E-02  0.33969891860E+01  0.33970036149E+01  0.90000000000E-02 0. -1.
</event>
<event>
 5   0  0.6135700E+09  0.9118800E+02  0.7818608E-02  0.1180000E+00
       11   -1    0    0    0    0  0.00000000000E+00  0.00000000000E+00  0.39999999673E+01  0.40000000000E+01  0.51109989000E-03 0. -1.
     -623   -1    0    0    0    0  0.00000000000E+00  0.00000000000E+00  0.12525980253E-10  0.17130000000E+03  0.17130000000E+03 0. -1.
       11    1    1    2    0    0 -0.67151648824E-03  0.18425502537E-04  0.53097288736E-01  0.53103997652E-01  0.51109989000E-03 0. -1.
     -623    1    1    2    0    0 -0.19921736801E-04 -0.75919326659E-04  0.16998519673E-04  0.17130000000E+03  0.17130000000E+03 0. -1.
      622    1    1    2    0    0  0.69143822504E-03  0.57493824122E-04  0.39468856801E+01  0.39468960023E+01  0.90000000000E-02 0. -1.
</event>
<event>
 5   0  0.6135700E+09  0.9118800E+02  0.7818608E-02  0.1180000E+00
       11   -1    0    0    0    0  0.00000000000E+00  0.00000000000E+00  0.39999999673E+01  0.40000000000E+01  0.51109989000E-03 0. -1.
     -623   -1    0    0    0    0  0.00000000000E+00  0.00000000000E+00  0.12525980253E-10  0.17130000000E+03  0.17130000000E+03 0.  1.
       11    1    1    2    0    0  0.51161031238E-03 -0.16893470358E-02  0.36857995404E-01  0.36903776035E-01  0.51109989000E-03 0. -1.
     -623    1    1    2    0    0 -0.11063305290E-02 -0.21135448299E-02  0.57853117934E-04  0.17130000002E+03  0.17130000000E+03 0.  1.
      622    1    1    2    0    0  0.59472021659E-03  0.38028918657E-02  0.39630841188E+01  0.39630962073E+01  0.90000000000E-02 0. -1.
</event>
<event>
 5   0  0.6135700E+09  0.9118800E+02  0.7818608E-02  0.1180000E+00
       11   -1    0    0    0    0  0.00000000000E+00  0.00000000000E+00  0.39999999673E+01  0.40000000000E+01  0.51109989000E-03 0. -1.
     -623   -1    0    0    0    0  0.00000000000E+00  0.00000000000E+00  0.12525980253E-10  0.17130000000E+03  0.17130000000E+03 0.  1.
       11    1    1    2    0    0 -0.16985482543E-02  0.24336107177E-02  0.22537296128E+00  0.22539307981E+00  0.51109989000E-03 0. -1.
     -623    1    1    2    0    0  0.10564629591E-03  0.14277547494E-03  0.32030966982E-04  0.17130000000E+03  0.17130000000E+03 0.  1.
      622    1    1    2    0    0  0.15929019584E-02 -0.25763861926E-02  0.37745949751E+01  0.37746069201E+01  0.90000000000E-02 0. -1.
</event>
<event>
 5   0  0.6135700E+09  0.9118800E+02  0.7818608E-02  0.1180000E+00
       11   -1    0    0    0    0  0.00000000000E+00  0.00000000000E+00  0.39999999673E+01  0.40000000000E+01  0.51109989000E-03 0. -1.
     -623   -1    0    0    0    0  0.00000000000E+00  0.00000000000E+00  0.12525980253E-10  0.17130000000E+03  0.17130000000E+03 0. -1.
       11    1    1    2    0    0  0.71523182199E-03 -0.36181855162E-03  0.74821152360E-01  0.74827191133E-01  0.51109989000E-03 0. -1.
     -623    1    1    2    0    0 -0.22376796392E-03  0.48790325174E-03  0.16357797627E-04  0.17130000000E+03  0.17130000000E+03 0. -1.
      622    1    1    2    0    0 -0.49146385746E-03 -0.12608470144E-03  0.39251624681E+01  0.39251728189E+01  0.90000000000E-02 0. -1.
</event>
<event>
 5   0  0.6135700E+09  0.9118800E+02  0.7818608E-02  0.1180000E+00
       11   -1    0    0    0    0  0.00000000000E+00  0.00000000000E+00  0.39999999673E+01  0.40000000000E+01  0.51109989000E-03 0.  1.
     -623   -1    0    0    0    0  0.00000000000E+00  0.00000000000E+00  0.12525980253E-10  0.17130000000E+03  0.17130000000E+03 0.  1.
       11    1    1    2    0    0 -0.51209330567E-03 -0.35533025027E-02  0.12369072654E+00  0.12374386955E+00  0.51109989000E-03 0.  1.
     -623    1    1    2    0    0  0.92946027717E-03  0.11473722889E-02  0.64334122721E-04  0.17130000001E+03  0.17130000000E+03 0.  1.
      622    1    1    2    0    0 -0.41736697150E-03  0.24059302138E-02  0.38762449067E+01  0.38762561241E+01  0.90000000000E-02 0.  1.
</event>
<event>
 5   0  0.6135700E+09  0.9118800E+02  0.7818608E-02  0.1180000E+00
       11   -1    0    0    0    0  0.00000000000E+00  0.00000000000E+00  0.39999999673E+01  0.40000000000E+01  0.51109989000E-03 0. -1.
     -623   -1    0    0    0    0  0.00000000000E+00  0.00000000000E+00  0.12525980253E-10  0.17130000000E+03  0.17130000000E+03 0.  1.
       11    1    1    2    0    0 -0.16390858816E-02 -0.12783816848E-02  0.10732405895E+00  0.10734540379E+00  0.51109989000E-03 0. -1.
     -623    1    1    2    0    0 -0.70166127327E-04  0.52272180929E-04  0.32284815508E-04  0.17130000000E+03  0.17130000000E+03 0.  1.
      622    1    1    2    0    0  0.17092520090E-02  0.12261095038E-02  0.38926436293E+01  0.38926546019E+01  0.90000000000E-02 0. -1.
</event>
<event>
 5   0  0.6135700E+09  0.9118800E+02  0.7818608E-02  0.1180000E+00
       11   -1    0    0    0    0  0.00000000000E+00  0.00000000000E+00  0.39999999673E+01  0.40000000000E+01  0.51109989000E-03 0. -1.
     -623   -1    0    0    0    0  0.00000000000E+00  0.00000000000E+00  0.12525980253E-10  0.17130000000E+03  0.17130000000E+03 0. -1.
       11    1    1    2    0    0 -0.13328427251E-02 -0.32139822957E-04  0.83962846020E-01  0.83974985779E-01  0.51109989000E-03 0. -1.
     -623    1    1    2    0    0  0.14040350654E-03  0.46200719776E-03  0.22655079468E-04  0.17130000000E+03  0.17130000000E+03 0. -1.
      622    1    1    2    0    0  0.11924392186E-02 -0.42986737481E-03  0.39160144663E+01  0.39160250135E+01  0.90000000000E-02 0. -1.
</event>
<event>
 5   0  0.6135700E+09  0.9118800E+02  0.7818608E-02  0.1180000E+00
       11   -1    0    0    0    0  0.00000000000E+00  0.00000000000E+00  0.39999999673E+01  0.40000000000E+01  0.51109989000E-03 0.  1.
     -623   -1    0    0    0    0  0.00000000000E+00  0.00000000000E+00  0.12525980253E-10  0.17130000000E+03  0.17130000000E+03 0. -1.
       11    1    1    2    0    0 -0.14212155628E-01 -0.11036514898E-02  0.63488301462E+00  0.63504323230E+00  0.51109989000E-03 0.  1.
     -623    1    1    2    0    0  0.97026843954E-03  0.38003011655E-05  0.19845863445E-03  0.17130000000E+03  0.17130000000E+03 0. -1.
      622    1    1    2    0    0  0.13241887188E-01  0.10998511886E-02  0.33649184938E+01  0.33649567646E+01  0.90000000000E-02 0.  1.
</event>
<event>
 5   0  0.6135700E+09  0.9118800E+02  0.7818608E-02  0.1180000E+00
       11   -1    0    0    0    0  0.00000000000E+00  0.00000000000E+00  0.39999999673E+01  0.40000000000E+01  0.51109989000E-03 0. -1.
     -623   -1    0    0    0    0  0.00000000000E+00  0.00000000000E+00  0.12525980253E-10  0.17130000000E+03  0.17130000000E+03 0.  1.
       11    1    1    2    0    0  0.10435566564E-01  0.10748352986E-01  0.17328772894E+00  0.17393483367E+00  0.51109989000E-03 0. -1.
     -623    1    1    2    0    0 -0.84478445865E-02 -0.10116579465E-01  0.65873419607E-03  0.17130000051E+03  0.17130000000E+03 0.  1.
      622    1    1    2    0    0 -0.19877219776E-02 -0.63177352046E-03  0.38260535042E+01  0.38260646580E+01  0.90000000000E-02 0. -1.
</event>
<event>
 5   0  0.6135700E+09  0.9118800E+02  0.7818608E-02  0.1180000E+00
       11   -1    0    0    0    0  0.00000000000E+00  0.00000000000E+00  0.39999999673E+01  0.40000000000E+01  0.51109989000E-03 0.  1.
     -623   -1    0    0    0    0  0.00000000000E+00  0.00000000000E+00  0.12525980253E-10  0.17130000000E+03  0.17130000000E+03 0. -1.
       11    1    1    2    0    0 -0.28478381911E-03  0.18834543963E-02  0.12986227499E+00  0.12987725046E+00  0.51109989000E-03 0.  1.
     -623    1    1    2    0    0 -0.13313517341E-03 -0.11148983495E-04  0.25883149002E-04  0.17130000000E+03  0.17130000000E+03 0. -1.
      622    1    1    2    0    0  0.41791899252E-03 -0.18723054128E-02  0.38701118092E+01  0.38701227495E+01  0.90000000000E-02 0.  1.
</event>
<event>
 5   0  0.6135700E+09  0.9118800E+02  0.7818608E-02  0.1180000E+00
       11   -1    0    0    0    0  0.00000000000E+00  0.00000000000E+00  0.39999999673E+01  0.40000000000E+01  0.51109989000E-03 0. -1.
     -623   -1    0    0    0    0  0.00000000000E+00  0.00000000000E+00  0.12525980253E-10  0.17130000000E+03  0.17130000000E+03 0.  1.
       11    1    1    2    0    0  0.42198036593E-03 -0.19778724458E-03  0.45985592901E-01  0.45990794348E-01  0.51109989000E-03 0. -1.
     -623    1    1    2    0    0 -0.95101108584E-05 -0.69244829479E-04  0.15442134350E-04  0.17130000000E+03  0.17130000000E+03 0.  1.
      622    1    1    2    0    0 -0.41247025505E-03  0.26703207418E-03  0.39539989395E+01  0.39540092129E+01  0.90000000000E-02 0. -1.
</event>
<event>
 5   0  0.6135700E+09  0.9118800E+02  0.7818608E-02  0.1180000E+00
       11   -1    0    0    0    0  0.00000000000E+00  0.00000000000E+00  0.39999999673E+01  0.40000000000E+01  0.51109989000E-03 0.  1.
     -623   -1    0    0    0    0  0.00000000000E+00  0.00000000000E+00  0.12525980253E-10  0.17130000000E+03  0.17130000000E+03 0.  1.
       11    1    1    2    0    0 -0.93351033976E-03 -0.41751020252E-02  0.11969723283E+01  0.11969800829E+01  0.51109989000E-03 0.  1.
     -623    1    1    2    0    0  0.10243648688E-03 -0.58597360774E-04  0.25491266926E-04  0.17130000000E+03  0.17130000000E+03 0.  1.
      622    1    1    2    0    0  0.83107385243E-03  0.42336993862E-02  0.28030021651E+01  0.28030199343E+01  0.90000000000E-02 0.  1.
</event>
<event>
 5   0  0.6135700E+09  0.9118800E+02  0.7818608E-02  0.1180000E+00
       11   -1    0    0    0    0  0.00000000000E+00  0.00000000000E+00  0.39999999673E+01  0.40000000000E+01  0.51109989000E-03 0. -1.
     -623   -1    0    0    0    0  0.00000000000E+00  0.00000000000E+00  0.12525980253E-10  0.17130000000E+03  0.17130000000E+03 0. -1.
       11    1    1    2    0    0  0.10052177375E-02 -0.40762722328E-03  0.94226268915E-02  0.94986178081E-02  0.51109989000E-03 0.  1.
     -623    1    1    2    0    0 -0.11663591734E-02  0.17012740615E-03  0.86121788056E-04  0.17130000000E+03  0.17130000000E+03 0. -1.
      622    1    1    2    0    0  0.16114143599E-03  0.23749981713E-03  0.39904912187E+01  0.39905013781E+01  0.90000000000E-02 0. -1.
</event>
<event>
 5   0  0.6135700E+09  0.9118800E+02  0.7818608E-02  0.1180000E+00
       11   -1    0    0    0    0  0.00000000000E+00  0.00000000000E+00  0.39999999673E+01  0.40000000000E+01  0.51109989000E-03 0. -1.
     -623   -1    0    0    0    0  0.00000000000E+00  0.00000000000E+00  0.12525980253E-10  0.17130000000E+03  0.17130000000E+03 0.  1.
       11    1    1    2    0    0 -0.15043581365E-01 -0.58044128232E-02  0.27898326450E+00  0.27944932214E+00  0.51109989000E-03 0. -1.
     -623    1    1    2    0    0 -0.32116762527E-02 -0.69353999975E-02  0.54367995927E-03  0.17130000017E+03  0.17130000000E+03 0.  1.
      622    1    1    2    0    0  0.18255257618E-01  0.12739812822E-01  0.37204730235E+01  0.37205505071E+01  0.90000000000E-02 0. -1.
</event>
<event>
 5   0  0.6135700E+09  0.9118800E+02  0.7818608E-02  0.1180000E+00
       11   -1    0    0    0    0  0.00000000000E+00  0.00000000000E+00  0.39999999673E+01  0.40000000000E+01  0.51109989000E-03 0.  1.
     -623   -1    0    0    0    0  0.00000000000E+00  0.00000000000E+00  0.12525980253E-10  0.17130000000E+03  0.17130000000E+03 0. -1.
       11    1    1    2    0    0  0.45670792323E-02  0.65634398142E-02  0.98475565438E+00  0.98478824984E+00  0.51109989000E-03 0.  1.
     -623    1    1    2    0    0 -0.24172362791E-03  0.27685500736E-03  0.56856523594E-04  0.17130000000E+03  0.17130000000E+03 0. -1.
      622    1    1    2    0    0 -0.43253556044E-02 -0.68402948216E-02  0.30151874565E+01  0.30152117498E+01  0.90000000000E-02 0. -1.
</event>
<event>
 5   0  0.6135700E+09  0.9118800E+02  0.7818608E-02  0.1180000E+00
       11   -1    0    0    0    0  0.00000000000E+00  0.00000000000E+00  0.39999999673E+01  0.40000000000E+01  0.51109989000E-03 0.  1.
     -623   -1    0    0    0    0  0.00000000000E+00  0.00000000000E+00  0.12525980253E-10  0.17130000000E+03  0.17130000000E+03 0. -1.
       11    1    1    2    0    0 -0.79098283888E-04 -0.18580089381E-03  0.43857839723E-01  0.43861282549E-01  0.51109989000E-03 0.  1.
     -623    1    1    2    0    0  0.17207364450E-03  0.79921793335E-04  0.13650068189E-04  0.17130000000E+03  0.17130000000E+03 0. -1.
      622    1    1    2    0    0 -0.92975360231E-04  0.10587910065E-03  0.39561284687E+01  0.39561387085E+01  0.90000000000E-02 0.  1.
</event>
<event>
 5   0  0.6135700E+09  0.9118800E+02  0.7818608E-02  0.1180000E+00
       11   -1    0    0    0    0  0.00000000000E+00  0.00000000000E+00  0.39999999673E+01  0.40000000000E+01  0.51109989000E-03 0.  1.
     -623   -1    0    0    0    0  0.00000000000E+00  0.00000000000E+00  0.12525980253E-10  0.17130000000E+03  0.17130000000E+03 0.  1.
       11    1    1    2    0    0  0.51767599587E-03  0.87357345972E-04  0.92065556155E+00  0.92065585311E+00  0.51109989000E-03 0.  1.
     -623    1    1    2    0    0 -0.10025871652E-03 -0.18563168262E-03  0.13441083651E-04  0.17130000000E+03  0.17130000000E+03 0.  1.
      622    1    1    2    0    0 -0.41741727863E-03  0.98274337976E-04  0.30793309934E+01  0.30793441754E+01  0.90000000000E-02 0.  1.
</event>
<event>
 5   0  0.6135700E+09  0.9118800E+02  0.7818608E-02  0.1180000E+00
       11   -1    0    0    0    0  0.00000000000E+00  0.00000000000E+00  0.39999999673E+01  0.40000000000E+01  0.51109989000E-03 0. -1.
     -623   -1    0    0    0    0  0.00000000000E+00  0.00000000000E+00  0.12525980253E-10  0.17130000000E+03  0.17130000000E+03 0. -1.
       11    1    1    2    0    0 -0.12692169882E-02  0.12351587580E-02  0.18444331242E+00  0.18445252302E+00  0.51109989000E-03 0. -1.
     -623    1    1    2    0    0  0.14153856396E-02  0.51622655011E-03  0.20203817058E-04  0.17130000001E+03  0.17130000000E+03 0. -1.
      622    1    1    2    0    0 -0.14616865132E-03 -0.17513853081E-02  0.38155364511E+01  0.38155474704E+01  0.90000000000E-02 0. -1.
</event>
<event>
 5   0  0.6135700E+09  0.9118800E+02  0.7818608E-02  0.1180000E+00
       11   -1    0    0    0    0  0.00000000000E+00  0.00000000000E+00  0.39999999673E+01  0.40000000000E+01  0.51109989000E-03 0.  1.
     -623   -1    0    0    0    0  0.00000000000E+00  0.00000000000E+00  0.12525980253E-10  0.17130000000E+03  0.17130000000E+03 0. -1.
       11    1    1    2    0    0 -0.88499078611E-02 -0.26192836702E-02  0.60512753104E+00  0.60519812587E+00  0.51109989000E-03 0.  1.
     -623    1    1    2    0    0  0.25783162640E-02  0.78507015766E-02  0.92515527482E-04  0.17130000020E+03  0.17130000000E+03 0. -1.
      622    1    1    2    0    0  0.62715915945E-02 -0.52314179144E-02  0.33947799248E+01  0.33948016788E+01  0.90000000000E-02 0.  1.
</event>
<event>
 5   0  0.6135700E+09  0.9118800E+02  0.7818608E-02  0.1180000E+00
       11   -1    0    0    0    0  0.00000000000E+00  0.00000000000E+00  0.39999999673E+01  0.40000000000E+01  0.51109989000E-03 0. -1.
     -623   -1    0    0    0    0  0.00000000000E+00  0.00000000000E+00  0.12525980253E-10  0.17130000000E+03  0.17130000000E+03 0. -1.
       11    1    1    2    0    0 -0.32325240833E-03  0.13347895011E-02  0.48807156371E-01  0.48829150016E-01  0.51109989000E-03 0. -1.
     -623    1    1    2    0    0 -0.15141588054E-02 -0.42120645394E-03  0.32751202333E-04  0.17130000001E+03  0.17130000000E+03 0. -1.
      622    1    1    2    0    0  0.18374112131E-02 -0.91358304738E-03  0.39511600582E+01  0.39511708411E+01  0.90000000000E-02 0. -1.
</event>
<event>
 5   0  0.6135700E+09  0.9118800E+02  0.7818608E-02  0.1180000E+00
       11   -1    0    0    0    0  0.00000000000E+00  0.00000000000E+00  0.39999999673E+01  0.40000000000E+01  0.51109989000E-03 0. -1.
     -623   -1    0    0    0    0  0.00000000000E+00  0.00000000000E+00  0.12525980253E-10  0.17130000000E+03  0.17130000000E+03 0.  1.
       11    1    1    2    0    0 -0.52159660538E-03 -0.62205453491E-03  0.11904608069E+00  0.11904994567E+00  0.51109989000E-03 0. -1.
     -623    1    1    2    0    0  0.29313780069E-04 -0.26500467998E-04  0.14353367536E-04  0.17130000000E+03  0.17130000000E+03 0.  1.
      622    1    1    2    0    0  0.49228282531E-03  0.64855500291E-03  0.38809395333E+01  0.38809500543E+01  0.90000000000E-02 0. -1.
</event>
<event>
 5   0  0.6135700E+09  0.9118800E+02  0.7818608E-02  0.1180000E+00
       11   -1    0    0    0    0  0.00000000000E+00  0.00000000000E+00  0.39999999673E+01  0.40000000000E+01  0.51109989000E-03 0. -1.
     -623   -1    0    0    0    0  0.00000000000E+00  0.00000000000E+00  0.12525980253E-10  0.17130000000E+03  0.17130000000E+03 0.  1.
       11    1    1    2    0    0  0.23888052290E-02  0.14030270319E-02  0.39937950010E+00  0.39938943551E+00  0.51109989000E-03 0. -1.
     -623    1    1    2    0    0  0.13981463042E-03 -0.20860846937E-03  0.22237072464E-04  0.17130000000E+03  0.17130000000E+03 0.  1.
      622    1    1    2    0    0 -0.25286198594E-02 -0.11944185625E-02  0.36005982302E+01  0.36006105643E+01  0.90000000000E-02 0. -1.
</event>
<event>
 5   0  0.6135700E+09  0.9118800E+02  0.7818608E-02  0.1180000E+00
       11   -1    0    0    0    0  0.00000000000E+00  0.00000000000E+00  0.39999999673E+01  0.40000000000E+01  0.51109989000E-03 0.  1.
     -623   -1    0    0    0    0  0.00000000000E+00  0.00000000000E+00  0.12525980253E-10  0.17130000000E+03  0.17130000000E+03 0. -1.
       11    1    1    2    0    0  0.30494976644E-02 -0.67259939290E-02  0.11584268912E+00  0.11607897429E+00  0.51109989000E-03 0.  1.
     -623    1    1    2    0    0  0.29438180830E-04  0.25896556441E-03  0.25328501493E-03  0.17130000000E+03  0.17130000000E+03 0. -1.
      622    1    1    2    0    0 -0.30789358453E-02  0.64670283646E-02  0.38839039932E+01  0.38839210253E+01  0.90000000000E-02 0.  1.
</event>
<event>
 5   0  0.6135700E+09  0.9118800E+02  0.7818608E-02  0.1180000E+00
       11   -1    0    0    0    0  0.00000000000E+00  0.00000000000E+00  0.39999999673E+01  0.40000000000E+01  0.51109989000E-03 0.  1.
     -623   -1    0    0    0    0  0.00000000000E+00  0.00000000000E+00  0.12525980253E-10  0.17130000000E+03  0.17130000000E+03 0. -1.
       11    1    1    2    0    0 -0.96559385672E-03  0.11737830973E-02  0.38263900332E+00  0.38264236334E+00  0.51109989000E-03 0.  1.
     -623    1    1    2    0    0  0.76882294206E-03  0.72993240268E-03  0.15032986059E-04  0.17130000000E+03  0.17130000000E+03 0. -1.
      622    1    1    2    0    0  0.19677091466E-03 -0.19037155000E-02  0.36173459311E+01  0.36173576334E+01  0.90000000000E-02 0.  1.
</event>
<event>
 5   0  0.6135700E+09  0.9118800E+02  0.7818608E-02  0.1180000E+00
       11   -1    0    0    0    0  0.00000000000E+00  0.00000000000E+00  0.39999999673E+01  0.40000000000E+01  0.51109989000E-03 0. -1.
     -623   -1    0    0    0    0  0.00000000000E+00  0.00000000000E+00  0.12525980253E-10  0.17130000000E+03  0.17130000000E+03 0.  1.
       11    1    1    2    0    0  0.19987430394E-02  0.12215917707E-02  0.26118120010E+00  0.26119220465E+00  0.51109989000E-03 0. -1.
     -623    1    1    2    0    0 -0.42150703399E-04  0.10154098713E-03  0.22550377303E-04  0.17130000000E+03  0.17130000000E+03 0.  1.
      622    1    1    2    0    0 -0.19565923359E-02 -0.13231327581E-02  0.37387962260E+01  0.37388078044E+01  0.90000000000E-02 0. -1.
</event>
<event>
 5   0  0.6135700E+09  0.9118800E+02  0.7818608E-02  0.1180000E+00
       11   -1    0    0    0    0  0.00000000000E+00  0.00000000000E+00  0.39999999673E+01  0.40000000000E+01  0.51109989000E-03 0. -1.
     -623   -1    0    0    0    0  0.00000000000E+00  0.00000000000E+00  0.12525980253E-10  0.17130000000E+03  0.17130000000E+03 0.  1.
       11    1    1    2    0    0 -0.11331360343E-02  0.31689053553E-02  0.11151277219E+01  0.11151329173E+01  0.51109989000E-03 0. -1.
     -623    1    1    2    0    0  0.68897091618E-04 -0.11895480383E-03  0.21010214462E-04  0.17130000000E+03  0.17130000000E+03 0.  1.
      622    1    1    2    0    0  0.10642389425E-02 -0.30499505512E-02  0.28848512442E+01  0.28848670916E+01  0.90000000000E-02 0.  0.
</event>
<event>
 5   0  0.6135700E+09  0.9118800E+02  0.7818608E-02  0.1180000E+00
       11   -1    0    0    0    0  0.00000000000E+00  0.00000000000E+00  0.39999999673E+01  0.40000000000E+01  0.51109989000E-03 0. -1.
     -623   -1    0    0    0    0  0.00000000000E+00  0.00000000000E+00  0.12525980253E-10  0.17130000000E+03  0.17130000000E+03 0.  1.
       11    1    1    2    0    0 -0.88050449004E-03  0.94066739095E-02  0.37986008041E+00  0.37997789767E+00  0.51109989000E-03 0. -1.
     -623    1    1    2    0    0 -0.20354635971E-02 -0.10500613861E-02  0.13980762814E-03  0.17130000002E+03  0.17130000000E+03 0.  1.
      622    1    1    2    0    0  0.29159680871E-02 -0.83566125234E-02  0.36200000793E+01  0.36200220870E+01  0.90000000000E-02 0. -1.
</event>
<event>
 5   0  0.6135700E+09  0.9118800E+02  0.7818608E-02  0.1180000E+00
       11   -1    0    0    0    0  0.00000000000E+00  0.00000000000E+00  0.39999999673E+01  0.40000000000E+01  0.51109989000E-03 0.  1.
     -623   -1    0    0    0    0  0.00000000000E+00  0.00000000000E+00  0.12525980253E-10  0.17130000000E+03  0.17130000000E+03 0. -1.
       11    1    1    2    0    0 -0.44299991026E-03 -0.28145035037E-03  0.86247182897E-02  0.86557756379E-02  0.51109989000E-03 0.  1.
     -623    1    1    2    0    0  0.37025512341E-03  0.76071833543E-03  0.41203210168E-04  0.17130000000E+03  0.17130000000E+03 0. -1.
      622    1    1    2    0    0  0.72744786788E-04 -0.47926798518E-03  0.39913340465E+01  0.39913442229E+01  0.90000000000E-02 0.  1.
</event>
<event>
 5   0  0.6135700E+09  0.9118800E+02  0.7818608E-02  0.1180000E+00
       11   -1    0    0    0    0  0.00000000000E+00  0.00000000000E+00  0.39999999673E+01  0.40000000000E+01  0.51109989000E-03 0.  1.
     -623   -1    0    0    0    0  0.00000000000E+00  0.00000000000E+00  0.12525980253E-10  0.17130000000E+03  0.17130000000E+03 0.  1.
       11    1    1    2    0    0  0.15007185181E-02  0.36049454463E-03  0.34699260303E-01  0.34737328640E-01  0.51109989000E-03 0.  1.
     -623    1    1    2    0    0  0.15794071997E-03 -0.20454264571E-03  0.48599585354E-04  0.17130000000E+03  0.17130000000E+03 0.  1.
      622    1    1    2    0    0 -0.16586592381E-02 -0.15595189879E-03  0.39652521101E+01  0.39652626738E+01  0.90000000000E-02 0.  1.
</event>
<event>
 5   0  0.6135700E+09  0.9118800E+02  0.7818608E-02  0.1180000E+00
       11   -1    0    0    0    0  0.00000000000E+00  0.00000000000E+00  0.39999999673E+01  0.40000000000E+01  0.51109989000E-03 0. -1.
     -623   -1    0    0    0    0  0.00000000000E+00  0.00000000000E+00  0.12525980253E-10  0.17130000000E+03  0.17130000000E+03 0.  1.
       11    1    1    2    0    0  0.10113941877E-02  0.47080029103E-04  0.37638077557E-01  0.37655162196E-01  0.51109989000E-03 0. -1.
     -623    1    1    2    0    0 -0.31448510178E-02 -0.70681407989E-02  0.34242781544E-04  0.17130000017E+03  0.17130000000E+03 0.  1.
      622    1    1    2    0    0  0.21334568302E-02  0.70210607701E-02  0.39623276472E+01  0.39623446633E+01  0.90000000000E-02 0. -1.
</event>
<event>
 5   0  0.6135700E+09  0.9118800E+02  0.7818608E-02  0.1180000E+00
       11   -1    0    0    0    0  0.00000000000E+00  0.00000000000E+00  0.39999999673E+01  0.40000000000E+01  0.51109989000E-03 0. -1.
     -623   -1    0    0    0    0  0.00000000000E+00  0.00000000000E+00  0.12525980253E-10  0.17130000000E+03  0.17130000000E+03 0.  1.
       11    1    1    2    0    0  0.12786785590E-03  0.60997723821E-03  0.83983329870E-01  0.83987197486E-01  0.51109989000E-03 0. -1.
     -623    1    1    2    0    0 -0.28700457060E-03 -0.99792148920E-03  0.14202739232E-04  0.17130000000E+03  0.17130000000E+03 0.  1.
      622    1    1    2    0    0  0.15913671304E-03  0.38794424518E-03  0.39160024115E+01  0.39160127761E+01  0.90000000000E-02 0. -1.
</event>
<event>
 5   0  0.6135700E+09  0.9118800E+02  0.7818608E-02  0.1180000E+00
       11   -1    0    0    0    0  0.00000000000E+00  0.00000000000E+00  0.39999999673E+01  0.40000000000E+01  0.51109989000E-03 0. -1.
     -623   -1    0    0    0    0  0.00000000000E+00  0.00000000000E+00  0.12525980253E-10  0.17130000000E+03  0.17130000000E+03 0.  1.
       11    1    1    2    0    0  0.11426017555E-01  0.68996707186E-02  0.93748548791E+00  0.93758064218E+00  0.51109989000E-03 0. -1.
     -623    1    1    2    0    0 -0.96021416950E-02 -0.65385112837E-02  0.10930486453E-03  0.17130000039E+03  0.17130000000E+03 0.  1.
      622    1    1    2    0    0 -0.18238758598E-02 -0.36115943491E-03  0.30624051746E+01  0.30624189639E+01  0.90000000000E-02 0.  0.
</event>
<event>
 5   0  0.6135700E+09  0.9118800E+02  0.7818608E-02  0.1180000E+00
       11   -1    0    0    0    0  0.00000000000E+00  0.00000000000E+00  0.39999999673E+01  0.40000000000E+01  0.51109989000E-03 0. -1.
     -623   -1    0    0    0    0  0.00000000000E+00  0.00000000000E+00  0.12525980253E-10  0.17130000000E+03  0.17130000000E+03 0. -1.
       11    1    1    2    0    0  0.23868494784E-03  0.11417654276E-02  0.41909986701E-01  0.41929331108E-01  0.51109989000E-03 0. -1.
     -623    1    1    2    0    0 -0.84829644137E-03  0.31599389340E-03  0.29861825492E-04  0.17130000000E+03  0.17130000000E+03 0. -1.
      622    1    1    2    0    0  0.60961149466E-03 -0.14577593214E-02  0.39580601242E+01  0.39580706718E+01  0.90000000000E-02 0. -1.
</event>
<event>
 5   0  0.6135700E+09  0.9118800E+02  0.7818608E-02  0.1180000E+00
       11   -1    0    0    0    0  0.00000000000E+00  0.00000000000E+00  0.39999999673E+01  0.40000000000E+01  0.51109989000E-03 0.  1.
     -623   -1    0    0    0    0  0.00000000000E+00  0.00000000000E+00  0.12525980253E-10  0.17130000000E+03  0.17130000000E+03 0.  1.
       11    1    1    2    0    0  0.11276728563E-02 -0.59831603066E-03  0.26008491428E-01  0.26044816674E-01  0.51109989000E-03 0. -1.
     -623    1    1    2    0    0  0.91581782400E-03  0.18211335157E-03  0.47033727434E-04  0.17130000000E+03  0.17130000000E+03 0.  1.
      622    1    1    2    0    0 -0.20434906803E-02  0.41620267910E-03  0.39739444422E+01  0.39739551808E+01  0.90000000000E-02 0.  1.
</event>
<event>
 5   0  0.6135700E+09  0.9118800E+02  0.7818608E-02  0.1180000E+00
       11   -1    0    0    0    0  0.00000000000E+00  0.00000000000E+00  0.39999999673E+01  0.40000000000E+01  0.51109989000E-03 0. -1.
     -623   -1    0    0    0    0  0.00000000000E+00  0.00000000000E+00  0.12525980253E-10  0.17130000000E+03  0.17130000000E+03 0.  1.
       11    1    1    2    0    0 -0.54518553602E-03  0.91248556597E-03  0.82189309190E-01  0.82197771414E-01  0.51109989000E-03 0. -1.
     -623    1    1    2    0    0  0.46499607733E-04  0.79186737474E-06  0.18905218309E-04  0.17130000000E+03  0.17130000000E+03 0.  1.
      622    1    1    2    0    0  0.49868592794E-03 -0.91327743335E-03  0.39177917832E+01  0.39178022588E+01  0.90000000000E-02 0. -1.
</event>
<event>
 5   0  0.6135700E+09  0.9118800E+02  0.7818608E-02  0.1180000E+00
       11   -1    0    0    0    0  0.00000000000E+00  0.00000000000E+00  0.39999999673E+01  0.40000000000E+01  0.51109989000E-03 0.  1.
     -623   -1    0    0    0    0  0.00000000000E+00  0.00000000000E+00  0.12525980253E-10  0.17130000000E+03  0.17130000000E+03 0.  1.
       11    1    1    2    0    0 -0.14399508956E-02 -0.20699427600E-02  0.92826246059E-02  0.96325730873E-02  0.51109989000E-03 0.  1.
     -623    1    1    2    0    0 -0.69861204158E-03  0.10007983416E-02  0.36078631539E-03  0.17130000000E+03  0.17130000000E+03 0.  1.
      622    1    1    2    0    0  0.21385629375E-02  0.10691444180E-02  0.39903565583E+01  0.39903674240E+01  0.90000000000E-02 0.  1.
</event>
<event>
 5   0  0.6135700E+09  0.9118800E+02  0.7818608E-02  0.1180000E+00
       11   -1    0    0    0    0  0.00000000000E+00  0.00000000000E+00  0.39999999673E+01  0.40000000000E+01  0.51109989000E-03 0. -1.
     -623   -1    0    0    0    0  0.00000000000E+00  0.00000000000E+00  0.12525980253E-10  0.17130000000E+03  0.17130000000E+03 0.  1.
       11    1    1    2    0    0 -0.44251187015E-03  0.33867133865E-03  0.54903799455E-01  0.54909005915E-01  0.51109989000E-03 0. -1.
     -623    1    1    2    0    0  0.43485475413E-04  0.72778806829E-04  0.15481412870E-04  0.17130000000E+03  0.17130000000E+03 0.  1.
      622    1    1    2    0    0  0.39902639474E-03 -0.41145014547E-03  0.39450806865E+01  0.39450909941E+01  0.90000000000E-02 0. -1.
</event>
<event>
 5   0  0.6135700E+09  0.9118800E+02  0.7818608E-02  0.1180000E+00
       11   -1    0    0    0    0  0.00000000000E+00  0.00000000000E+00  0.39999999673E+01  0.40000000000E+01  0.51109989000E-03 0.  1.
     -623   -1    0    0    0    0  0.00000000000E+00  0.00000000000E+00  0.12525980253E-10  0.17130000000E+03  0.17130000000E+03 0. -1.
       11    1    1    2    0    0 -0.15969334448E-02  0.20960747321E-02  0.16202038898E+00  0.16204262216E+00  0.51109989000E-03 0.  1.
     -623    1    1    2    0    0  0.14205983225E-02 -0.16231915249E-02  0.32799800970E-04  0.17130000001E+03  0.17130000000E+03 0. -1.
      622    1    1    2    0    0  0.17633512226E-03 -0.47288320722E-03  0.38379467786E+01  0.38379573643E+01  0.90000000000E-02 0.  1.
</event>
<event>
 5   0  0.6135700E+09  0.9118800E+02  0.7818608E-02  0.1180000E+00
       11   -1    0    0    0    0  0.00000000000E+00  0.00000000000E+00  0.39999999673E+01  0.40000000000E+01  0.51109989000E-03 0.  1.
     -623   -1    0    0    0    0  0.00000000000E+00  0.00000000000E+00  0.12525980253E-10  0.17130000000E+03  0.17130000000E+03 0.  1.
       11    1    1    2    0    0 -0.17044120872E-02  0.21210548788E-02  0.50120561302E+00  0.50121325964E+00  0.51109989000E-03 0.  1.
     -623    1    1    2    0    0  0.22961753271E-02  0.67310700618E-03  0.20371921851E-04  0.17130000002E+03  0.17130000000E+03 0.  1.
      622    1    1    2    0    0 -0.59176323991E-03 -0.27941618850E-02  0.34987739824E+01  0.34987867236E+01  0.90000000000E-02 0.  1.
</event>
<event>
 5   0  0.6135700E+09  0.9118800E+02  0.7818608E-02  0.1180000E+00
       11   -1    0    0    0    0  0.00000000000E+00  0.00000000000E+00  0.39999999673E+01  0.40000000000E+01  0.51109989000E-03 0.  1.
     -623   -1    0    0    0    0  0.00000000000E+00  0.00000000000E+00  0.12525980253E-10  0.17130000000E+03  0.17130000000E+03 0.  1.
       11    1    1    2    0    0 -0.30508505685E-03 -0.16172346185E-02  0.12030013794E+00  0.12031248038E+00  0.51109989000E-03 0.  1.
     -623    1    1    2    0    0  0.55237198822E-03  0.32518312515E-02  0.23132787978E-04  0.17130000003E+03  0.17130000000E+03 0.  1.
      622    1    1    2    0    0 -0.24728693018E-03 -0.16345966260E-02  0.38796766880E+01  0.38796874793E+01  0.90000000000E-02 0.  1.
</event>
<event>
 5   0  0.6135700E+09  0.9118800E+02  0.7818608E-02  0.1180000E+00
       11   -1    0    0    0    0  0.00000000000E+00  0.00000000000E+00  0.39999999673E+01  0.40000000000E+01  0.51109989000E-03 0.  1.
     -623   -1    0    0    0    0  0.00000000000E+00  0.00000000000E+00  0.12525980253E-10  0.17130000000E+03  0.17130000000E+03 0.  1.
       11    1    1    2    0    0 -0.15505719091E-02  0.18591583738E-02  0.27437717917E-01  0.27549053137E-01  0.51109989000E-03 0.  1.
     -623    1    1    2    0    0  0.16207306886E-03  0.24478647006E-03  0.12229792955E-03  0.17130000000E+03  0.17130000000E+03 0.  1.
      622    1    1    2    0    0  0.13884988402E-02 -0.21039448439E-02  0.39724399515E+01  0.39724509466E+01  0.90000000000E-02 0.  1.
</event>
<event>
 5   0  0.6135700E+09  0.9118800E+02  0.7818608E-02  0.1180000E+00
       11   -1    0    0    0    0  0.00000000000E+00  0.00000000000E+00  0.39999999673E+01  0.40000000000E+01  0.51109989000E-03 0.  1.
     -623   -1    0    0    0    0  0.00000000000E+00  0.00000000000E+00  0.12525980253E-10  0.17130000000E+03  0.17130000000E+03 0.  1.
       11    1    1    2    0    0  0.82539075914E-03  0.55594941896E-04  0.35508523959E+00  0.35508657108E+00  0.51109989000E-03 0.  1.
     -623    1    1    2    0    0 -0.29443631168E-03  0.77547190624E-04  0.12451612759E-04  0.17130000000E+03  0.17130000000E+03 0.  1.
      622    1    1    2    0    0 -0.53095444743E-03 -0.13314213253E-03  0.36449022766E+01  0.36449134291E+01  0.90000000000E-02 0.  1.
</event>
<event>
 5   0  0.6135700E+09  0.9118800E+02  0.7818608E-02  0.1180000E+00
       11   -1    0    0    0    0  0.00000000000E+00  0.00000000000E+00  0.39999999673E+01  0.40000000000E+01  0.51109989000E-03 0.  1.
     -623   -1    0    0    0    0  0.00000000000E+00  0.00000000000E+00  0.12525980253E-10  0.17130000000E+03  0.17130000000E+03 0.  1.
       11    1    1    2    0    0  0.58645482164E-03 -0.71136342268E-03  0.50059007186E-01  0.50070104736E-01  0.51109989000E-03 0.  1.
     -623    1    1    2    0    0 -0.55971792780E-03  0.18437282002E-03  0.21354530159E-04  0.17130000000E+03  0.17130000000E+03 0.  1.
      622    1    1    2    0    0 -0.26736893841E-04  0.52699060266E-03  0.39499196056E+01  0.39499298942E+01  0.90000000000E-02 0.  1.
</event>
<event>
 5   0  0.6135700E+09  0.9118800E+02  0.7818608E-02  0.1180000E+00
       11   -1    0    0    0    0  0.00000000000E+00  0.00000000000E+00  0.39999999673E+01  0.40000000000E+01  0.51109989000E-03 0.  1.
     -623   -1    0    0    0    0  0.00000000000E+00  0.00000000000E+00  0.12525980253E-10  0.17130000000E+03  0.17130000000E+03 0.  1.
       11    1    1    2    0    0  0.55833042317E-03 -0.46657630522E-04  0.87902187331E-01  0.87905458704E-01  0.51109989000E-03 0.  1.
     -623    1    1    2    0    0  0.23129443703E-05  0.58379745426E-04  0.13631458005E-04  0.17130000000E+03  0.17130000000E+03 0.  1.
      622    1    1    2    0    0 -0.56064336754E-03 -0.11722114905E-04  0.39120841486E+01  0.39120945413E+01  0.90000000000E-02 0.  1.
</event>
<event>
 5   0  0.6135700E+09  0.9118800E+02  0.7818608E-02  0.1180000E+00
       11   -1    0    0    0    0  0.00000000000E+00  0.00000000000E+00  0.39999999673E+01  0.40000000000E+01  0.51109989000E-03 0. -1.
     -623   -1    0    0    0    0  0.00000000000E+00  0.00000000000E+00  0.12525980253E-10  0.17130000000E+03  0.17130000000E+03 0. -1.
       11    1    1    2    0    0  0.93163319319E-03  0.71487375699E-03  0.10329804579E-01  0.10408893824E-01  0.51109989000E-03 0. -1.
     -623    1    1    2    0    0  0.16757303399E-02  0.20224699375E-03  0.90173798978E-04  0.17130000001E+03  0.17130000000E+03 0. -1.
      622    1    1    2    0    0 -0.26073635356E-02 -0.91712075104E-03  0.39895799948E+01  0.39895911037E+01  0.90000000000E-02 0. -1.
</event>
<event>
 5   0  0.6135700E+09  0.9118800E+02  0.7818608E-02  0.1180000E+00
       11   -1    0    0    0    0  0.00000000000E+00  0.00000000000E+00  0.39999999673E+01  0.40000000000E+01  0.51109989000E-03 0.  1.
     -623   -1    0    0    0    0  0.00000000000E+00  0.00000000000E+00  0.12525980253E-10  0.17130000000E+03  0.17130000000E+03 0. -1.
       11    1    1    2    0    0 -0.14153073308E-02  0.14239548958E-02  0.20358550032E+00  0.20359604099E+00  0.51109989000E-03 0.  1.
     -623    1    1    2    0    0  0.65209136213E-03  0.31393524955E-03  0.21652061029E-04  0.17130000000E+03  0.17130000000E+03 0. -1.
      622    1    1    2    0    0  0.76321596567E-03 -0.17378901467E-02  0.37963928331E+01  0.37964039756E+01  0.90000000000E-02 0.  1.
</event>
<event>
 5   0  0.6135700E+09  0.9118800E+02  0.7818608E-02  0.1180000E+00
       11   -1    0    0    0    0  0.00000000000E+00  0.00000000000E+00  0.39999999673E+01  0.40000000000E+01  0.51109989000E-03 0. -1.
     -623   -1    0    0    0    0  0.00000000000E+00  0.00000000000E+00  0.12525980253E-10  0.17130000000E+03  0.17130000000E+03 0. -1.
       11    1    1    2    0    0 -0.37676897141E-03 -0.24688854199E-03  0.13241038010E-01  0.13258552692E-01  0.51109989000E-03 0. -1.
     -623    1    1    2    0    0  0.25568470303E-03  0.11073101754E-03  0.27645119901E-04  0.17130000000E+03  0.17130000000E+03 0. -1.
      622    1    1    2    0    0  0.12108426798E-03  0.13615752427E-03  0.39867312905E+01  0.39867414534E+01  0.90000000000E-02 0. -1.
</event>
<event>
 5   0  0.6135700E+09  0.9118800E+02  0.7818608E-02  0.1180000E+00
       11   -1    0    0    0    0  0.00000000000E+00  0.00000000000E+00  0.39999999673E+01  0.40000000000E+01  0.51109989000E-03 0. -1.
     -623   -1    0    0    0    0  0.00000000000E+00  0.00000000000E+00  0.12525980253E-10  0.17130000000E+03  0.17130000000E+03 0. -1.
       11    1    1    2    0    0  0.26575048620E-02 -0.40903299448E-02  0.60560283300E+00  0.60562269252E+00  0.51109989000E-03 0. -1.
     -623    1    1    2    0    0 -0.52413953895E-03 -0.25123221883E-03  0.35206334966E-04  0.17130000000E+03  0.17130000000E+03 0. -1.
      622    1    1    2    0    0 -0.21333653231E-02  0.43415621636E-02  0.33943619275E+01  0.33943773060E+01  0.90000000000E-02 0. -1.
</event>
<event>
 5   0  0.6135700E+09  0.9118800E+02  0.7818608E-02  0.1180000E+00
       11   -1    0    0    0    0  0.00000000000E+00  0.00000000000E+00  0.39999999673E+01  0.40000000000E+01  0.51109989000E-03 0. -1.
     -623   -1    0    0    0    0  0.00000000000E+00  0.00000000000E+00  0.12525980253E-10  0.17130000000E+03  0.17130000000E+03 0.  1.
       11    1    1    2    0    0 -0.46908719578E-03  0.22658772550E-02  0.37471945426E-01  0.37546799592E-01  0.51109989000E-03 0. -1.
     -623    1    1    2    0    0 -0.75309136033E-03 -0.27763606798E-02  0.85288023841E-04  0.17130000002E+03  0.17130000000E+03 0.  1.
      622    1    1    2    0    0  0.12221785570E-02  0.51048342799E-03  0.39624427385E+01  0.39624531808E+01  0.90000000000E-02 0. -1.
</event>
<event>
 5   0  0.6135700E+09  0.9118800E+02  0.7818608E-02  0.1180000E+00
       11   -1    0    0    0    0  0.00000000000E+00  0.00000000000E+00  0.39999999673E+01  0.40000000000E+01  0.51109989000E-03 0.  1.
     -623   -1    0    0    0    0  0.00000000000E+00  0.00000000000E+00  0.12525980253E-10  0.17130000000E+03  0.17130000000E+03 0. -1.
       11    1    1    2    0    0  0.38798806732E-02 -0.68586695092E-02  0.57635402301E+00  0.57640811574E+00  0.51109989000E-03 0.  1.
     -623    1    1    2    0    0 -0.36028845893E-02  0.34865592552E-02  0.67635083252E-04  0.17130000007E+03  0.17130000000E+03 0. -1.
      622    1    1    2    0    0 -0.27699607790E-03  0.33721102482E-02  0.34235783160E+01  0.34235918176E+01  0.90000000000E-02 0.  1.
</event>
<event>
 5   0  0.6135700E+09  0.9118800E+02  0.7818608E-02  0.1180000E+00
       11   -1    0    0    0    0  0.00000000000E+00  0.00000000000E+00  0.39999999673E+01  0.40000000000E+01  0.51109989000E-03 0.  1.
     -623   -1    0    0    0    0  0.00000000000E+00  0.00000000000E+00  0.12525980253E-10  0.17130000000E+03  0.17130000000E+03 0. -1.
       11    1    1    2    0    0 -0.23118061612E-03 -0.14620057725E-03  0.12543651853E+00  0.12543785800E+00  0.51109989000E-03 0.  1.
     -623    1    1    2    0    0 -0.12954732106E-03 -0.45342917662E-03  0.11823482697E-04  0.17130000000E+03  0.17130000000E+03 0. -1.
      622    1    1    2    0    0  0.36072793718E-03  0.59962975386E-03  0.38745516253E+01  0.38745621413E+01  0.90000000000E-02 0.  1.
</event>
<event>
 5   0  0.6135700E+09  0.9118800E+02  0.7818608E-02  0.1180000E+00
       11   -1    0    0    0    0  0.00000000000E+00  0.00000000000E+00  0.39999999673E+01  0.40000000000E+01  0.51109989000E-03 0.  1.
     -623   -1    0    0    0    0  0.00000000000E+00  0.00000000000E+00  0.12525980253E-10  0.17130000000E+03  0.17130000000E+03 0.  1.
       11    1    1    2    0    0  0.14528545030E-01 -0.14915176975E-01  0.73748071061E+00  0.73777476297E+00  0.51109989000E-03 0.  1.
     -623    1    1    2    0    0 -0.10908167377E-01  0.13117136969E-01  0.30978883629E-03  0.17130000085E+03  0.17130000000E+03 0.  1.
      622    1    1    2    0    0 -0.36203776527E-02  0.17980400047E-02  0.32622094683E+01  0.32622243876E+01  0.90000000000E-02 0.  0.
</event>
<event>
 5   0  0.6135700E+09  0.9118800E+02  0.7818608E-02  0.1180000E+00
       11   -1    0    0    0    0  0.00000000000E+00  0.00000000000E+00  0.39999999673E+01  0.40000000000E+01  0.51109989000E-03 0. -1.
     -623   -1    0    0    0    0  0.00000000000E+00  0.00000000000E+00  0.12525980253E-10  0.17130000000E+03  0.17130000000E+03 0.  1.
       11    1    1    2    0    0  0.45926258853E-03 -0.39870445254E-02  0.18639712618E+00  0.18644102906E+00  0.51109989000E-03 0. -1.
     -623    1    1    2    0    0  0.41574813126E-03 -0.66588552868E-04  0.56745585436E-04  0.17130000000E+03  0.17130000000E+03 0.  1.
      622    1    1    2    0    0 -0.87501071966E-03  0.40536330782E-02  0.38135460943E+01  0.38135589691E+01  0.90000000000E-02 0. -1.
</event>
<event>
 5   0  0.6135700E+09  0.9118800E+02  0.7818608E-02  0.1180000E+00
       11   -1    0    0    0    0  0.00000000000E+00  0.00000000000E+00  0.39999999673E+01  0.40000000000E+01  0.51109989000E-03 0.  1.
     -623   -1    0    0    0    0  0.00000000000E+00  0.00000000000E+00  0.12525980253E-10  0.17130000000E+03  0.17130000000E+03 0.  1.
       11    1    1    2    0    0  0.29865780360E-03  0.32069577278E-03  0.41638073388E-01  0.41643515925E-01  0.51109989000E-03 0.  1.
     -623    1    1    2    0    0 -0.10165402000E-02 -0.75103212063E-05  0.15721933056E-04  0.17130000000E+03  0.17130000000E+03 0.  1.
      622    1    1    2    0    0  0.71788239640E-03 -0.31318545158E-03  0.39583461720E+01  0.39583564811E+01  0.90000000000E-02 0.  1.
</event>
<event>
 5   0  0.6135700E+09  0.9118800E+02  0.7818608E-02  0.1180000E+00
       11   -1    0    0    0    0  0.00000000000E+00  0.00000000000E+00  0.39999999673E+01  0.40000000000E+01  0.51109989000E-03 0.  1.
     -623   -1    0    0    0    0  0.00000000000E+00  0.00000000000E+00  0.12525980253E-10  0.17130000000E+03  0.17130000000E+03 0. -1.
       11    1    1    2    0    0 -0.92807846755E-03 -0.55780391444E-02  0.19546814574E+00  0.19555058955E+00  0.51109989000E-03 0.  1.
     -623    1    1    2    0    0  0.18881468150E-02  0.12698263611E-02  0.95632236690E-04  0.17130000002E+03  0.17130000000E+03 0. -1.
      622    1    1    2    0    0 -0.96006834741E-03  0.43082127833E-02  0.38044361894E+01  0.38044493953E+01  0.90000000000E-02 0.  1.
</event>
<event>
 5   0  0.6135700E+09  0.9118800E+02  0.7818608E-02  0.1180000E+00
       11   -1    0    0    0    0  0.00000000000E+00  0.00000000000E+00  0.39999999673E+01  0.40000000000E+01  0.51109989000E-03 0.  1.
     -623   -1    0    0    0    0  0.00000000000E+00  0.00000000000E+00  0.12525980253E-10  0.17130000000E+03  0.17130000000E+03 0.  1.
       11    1    1    2    0    0  0.16866134800E-02 -0.51707008382E-03  0.10708388212E+00  0.10709963146E+00  0.51109989000E-03 0.  1.
     -623    1    1    2    0    0 -0.27778398888E-03  0.61683080408E-03  0.26377808484E-04  0.17130000000E+03  0.17130000000E+03 0.  1.
      622    1    1    2    0    0 -0.14088294911E-02 -0.99760720267E-04  0.38928897074E+01  0.38929003672E+01  0.90000000000E-02 0.  1.
</event>
<event>
 5   0  0.6135700E+09  0.9118800E+02  0.7818608E-02  0.1180000E+00
       11   -1    0    0    0    0  0.00000000000E+00  0.00000000000E+00  0.39999999673E+01  0.40000000000E+01  0.51109989000E-03 0. -1.
     -623   -1    0    0    0    0  0.00000000000E+00  0.00000000000E+00  0.12525980253E-10  0.17130000000E+03  0.17130000000E+03 0.  1.
       11    1    1    2    0    0  0.27711113102E-03 -0.58746429002E-03  0.11707180054E+00  0.11707471806E+00  0.51109989000E-03 0. -1.
     -623    1    1    2    0    0  0.40543754507E-03  0.10485166194E-03  0.13405672705E-04  0.17130000000E+03  0.17130000000E+03 0.  1.
      622    1    1    2    0    0 -0.68254867597E-03  0.48261262811E-03  0.38829147599E+01  0.38829252802E+01  0.90000000000E-02 0.  0.
</event>
<event>
 5   0  0.6135700E+09  0.9118800E+02  0.7818608E-02  0.1180000E+00
       11   -1    0    0    0    0  0.00000000000E+00  0.00000000000E+00  0.39999999673E+01  0.40000000000E+01  0.51109989000E-03 0. -1.
     -623   -1    0    0    0    0  0.00000000000E+00  0.00000000000E+00  0.12525980253E-10  0.17130000000E+03  0.17130000000E+03 0. -1.
       11    1    1    2    0    0  0.13957788678E-02 -0.29488423227E-03  0.86993733435E-01  0.87006930962E-01  0.51109989000E-03 0. -1.
     -623    1    1    2    0    0 -0.97490792828E-03  0.65919620911E-04  0.23547154927E-04  0.17130000000E+03  0.17130000000E+03 0. -1.
      622    1    1    2    0    0 -0.42087093386E-03  0.22896461098E-03  0.39129827100E+01  0.39129930895E+01  0.90000000000E-02 0. -1.
</event>
<event>
 5   0  0.6135700E+09  0.9118800E+02  0.7818608E-02  0.1180000E+00
       11   -1    0    0    0    0  0.00000000000E+00  0.00000000000E+00  0.39999999673E+01  0.40000000000E+01  0.51109989000E-03 0. -1.
     -623   -1    0    0    0    0  0.00000000000E+00  0.00000000000E+00  0.12525980253E-10  0.17130000000E+03  0.17130000000E+03 0. -1.
       11    1    1    2    0    0  0.35395882121E-02  0.37357209366E-02  0.35233644214E-01  0.35611166813E-01  0.51109989000E-03 0. -1.
     -623    1    1    2    0    0 -0.50528003483E-02 -0.23858703006E-02  0.38831610565E-03  0.17130000009E+03  0.17130000000E+03 0. -1.
      622    1    1    2    0    0  0.15132121361E-02 -0.13498506360E-02  0.39643780070E+01  0.39643887416E+01  0.90000000000E-02 0. -1.
</event>
<event>
 5   0  0.6135700E+09  0.9118800E+02  0.7818608E-02  0.1180000E+00
       11   -1    0    0    0    0  0.00000000000E+00  0.00000000000E+00  0.39999999673E+01  0.40000000000E+01  0.51109989000E-03 0. -1.
     -623   -1    0    0    0    0  0.00000000000E+00  0.00000000000E+00  0.12525980253E-10  0.17130000000E+03  0.17130000000E+03 0.  1.
       11    1    1    2    0    0  0.85781602105E-02  0.33338804622E-02  0.24716954732E+00  0.24734135509E+00  0.51109989000E-03 0. -1.
     -623    1    1    2    0    0 -0.25354986485E-02  0.29763459118E-02  0.19278274927E-03  0.17130000004E+03  0.17130000000E+03 0.  1.
      622    1    1    2    0    0 -0.60426615620E-02 -0.63102263739E-02  0.37526376373E+01  0.37526586002E+01  0.90000000000E-02 0. -1.
</event>
<event>
 5   0  0.6135700E+09  0.9118800E+02  0.7818608E-02  0.1180000E+00
       11   -1    0    0    0    0  0.00000000000E+00  0.00000000000E+00  0.39999999673E+01  0.40000000000E+01  0.51109989000E-03 0.  1.
     -623   -1    0    0    0    0  0.00000000000E+00  0.00000000000E+00  0.12525980253E-10  0.17130000000E+03  0.17130000000E+03 0.  1.
       11    1    1    2    0    0 -0.18778889970E-03 -0.11789087825E-02  0.42657712529E+00  0.42657910185E+00  0.51109989000E-03 0.  1.
     -623    1    1    2    0    0  0.20919177429E-03 -0.10308380229E-03  0.13507799629E-04  0.17130000000E+03  0.17130000000E+03 0.  1.
      622    1    1    2    0    0 -0.21402874586E-04  0.12819925848E-02  0.35734093343E+01  0.35734208980E+01  0.90000000000E-02 0.  1.
</event>
<event>
 5   0  0.6135700E+09  0.9118800E+02  0.7818608E-02  0.1180000E+00
       11   -1    0    0    0    0  0.00000000000E+00  0.00000000000E+00  0.39999999673E+01  0.40000000000E+01  0.51109989000E-03 0. -1.
     -623   -1    0    0    0    0  0.00000000000E+00  0.00000000000E+00  0.12525980253E-10  0.17130000000E+03  0.17130000000E+03 0.  1.
       11    1    1    2    0    0 -0.27319921694E-02 -0.18212511058E-02  0.18924881422E+00  0.18927798510E+00  0.51109989000E-03 0. -1.
     -623    1    1    2    0    0 -0.59443190745E-04 -0.35217257519E-04  0.41240780983E-04  0.17130000000E+03  0.17130000000E+03 0.  1.
      622    1    1    2    0    0  0.27914353602E-02  0.18564683634E-02  0.38107099124E+01  0.38107220149E+01  0.90000000000E-02 0. -1.
</event>
<event>
 5   0  0.6135700E+09  0.9118800E+02  0.7818608E-02  0.1180000E+00
       11   -1    0    0    0    0  0.00000000000E+00  0.00000000000E+00  0.39999999673E+01  0.40000000000E+01  0.51109989000E-03 0.  1.
     -623   -1    0    0    0    0  0.00000000000E+00  0.00000000000E+00  0.12525980253E-10  0.17130000000E+03  0.17130000000E+03 0.  1.
       11    1    1    2    0    0  0.52623048011E-02 -0.21829753334E-02  0.10364611650E+01  0.10364769486E+01  0.51109989000E-03 0.  1.
     -623    1    1    2    0    0 -0.16194214652E-03 -0.23678368731E-03  0.34794312122E-04  0.17130000000E+03  0.17130000000E+03 0.  1.
      622    1    1    2    0    0 -0.51003626546E-02  0.24197590207E-02  0.29635040066E+01  0.29635230497E+01  0.90000000000E-02 0.  1.
</event>
<event>
 5   0  0.6135700E+09  0.9118800E+02  0.7818608E-02  0.1180000E+00
       11   -1    0    0    0    0  0.00000000000E+00  0.00000000000E+00  0.39999999673E+01  0.40000000000E+01  0.51109989000E-03 0.  1.
     -623   -1    0    0    0    0  0.00000000000E+00  0.00000000000E+00  0.12525980253E-10  0.17130000000E+03  0.17130000000E+03 0. -1.
       11    1    1    2    0    0 -0.32140302307E-02  0.41725572981E-02  0.11465926234E+01  0.11466048340E+01  0.51109989000E-03 0.  1.
     -623    1    1    2    0    0 -0.23890009781E-03 -0.64757114955E-03  0.30639627823E-04  0.17130000000E+03  0.17130000000E+03 0. -1.
      622    1    1    2    0    0  0.34529303285E-02 -0.35249861486E-02  0.28533767044E+01  0.28533951646E+01  0.90000000000E-02 0.  1.
</event>
<event>
 5   0  0.6135700E+09  0.9118800E+02  0.7818608E-02  0.1180000E+00
       11   -1    0    0    0    0  0.00000000000E+00  0.00000000000E+00  0.39999999673E+01  0.40000000000E+01  0.51109989000E-03 0. -1.
     -623   -1    0    0    0    0  0.00000000000E+00  0.00000000000E+00  0.12525980253E-10  0.17130000000E+03  0.17130000000E+03 0.  1.
       11    1    1    2    0    0 -0.17788744141E-02  0.59306803230E-02  0.79543383856E+00  0.79545810079E+00  0.51109989000E-03 0. -1.
     -623    1    1    2    0    0 -0.35636080186E-03 -0.16815290130E-03  0.42760979230E-04  0.17130000000E+03  0.17130000000E+03 0.  1.
      622    1    1    2    0    0  0.21352352160E-02 -0.57625274217E-02  0.32045233678E+01  0.32045418988E+01  0.90000000000E-02 0. -1.
</event>
<event>
 5   0  0.6135700E+09  0.9118800E+02  0.7818608E-02  0.1180000E+00
       11   -1    0    0    0    0  0.00000000000E+00  0.00000000000E+00  0.39999999673E+01  0.40000000000E+01  0.51109989000E-03 0. -1.
     -623   -1    0    0    0    0  0.00000000000E+00  0.00000000000E+00  0.12525980253E-10  0.17130000000E+03  0.17130000000E+03 0.  1.
       11    1    1    2    0    0  0.16791276159E-02 -0.75503996515E-03  0.54124476816E-01  0.54158192066E-01  0.51109989000E-03 0. -1.
     -623    1    1    2    0    0 -0.38904786675E-02  0.60188368737E-03  0.44614457438E-04  0.17130000005E+03  0.17130000000E+03 0.  1.
      622    1    1    2    0    0  0.22113510516E-02  0.15315627778E-03  0.39458308761E+01  0.39458417627E+01  0.90000000000E-02 0. -1.
</event>
<event>
 5   0  0.6135700E+09  0.9118800E+02  0.7818608E-02  0.1180000E+00
       11   -1    0    0    0    0  0.00000000000E+00  0.00000000000E+00  0.39999999673E+01  0.40000000000E+01  0.51109989000E-03 0. -1.
     -623   -1    0    0    0    0  0.00000000000E+00  0.00000000000E+00  0.12525980253E-10  0.17130000000E+03  0.17130000000E+03 0. -1.
       11    1    1    2    0    0  0.26396358907E-02 -0.33226189157E-02  0.33384556739E+00  0.33387292727E+00  0.51109989000E-03 0. -1.
     -623    1    1    2    0    0 -0.83649915008E-04  0.47180448593E-04  0.40728571087E-04  0.17130000000E+03  0.17130000000E+03 0. -1.
      622    1    1    2    0    0 -0.25559859757E-02  0.32754384671E-02  0.36661136720E+01  0.36661270733E+01  0.90000000000E-02 0. -1.
</event>
<event>
 5   0  0.6135700E+09  0.9118800E+02  0.7818608E-02  0.1180000E+00
       11   -1    0    0    0    0  0.00000000000E+00  0.00000000000E+00  0.39999999673E+01  0.40000000000E+01  0.51109989000E-03 0.  1.
     -623   -1    0    0    0    0  0.00000000000E+00  0.00000000000E+00  0.12525980253E-10  0.17130000000E+03  0.17130000000E+03 0. -1.
       11    1    1    2    0    0 -0.20584885275E-02  0.20076590117E-02  0.99901413430E+00  0.99901840314E+00  0.51109989000E-03 0.  1.
     -623    1    1    2    0    0 -0.59609011346E-04  0.19070661077E-03  0.19284627463E-04  0.17130000000E+03  0.17130000000E+03 0. -1.
      622    1    1    2    0    0  0.21180975389E-02 -0.21983656224E-02  0.30009665484E+01  0.30009815967E+01  0.90000000000E-02 0.  1.
</event>
<event>
 5   0  0.6135700E+09  0.9118800E+02  0.7818608E-02  0.1180000E+00
       11   -1    0    0    0    0  0.00000000000E+00  0.00000000000E+00  0.39999999673E+01  0.40000000000E+01  0.51109989000E-03 0. -1.
     -623   -1    0    0    0    0  0.00000000000E+00  0.00000000000E+00  0.12525980253E-10  0.17130000000E+03  0.17130000000E+03 0. -1.
       11    1    1    2    0    0  0.92583357311E-03  0.51919025718E-03  0.18055101797E-01  0.18093497459E-01  0.51109989000E-03 0. -1.
     -623    1    1    2    0    0  0.20065411601E-03 -0.11235897006E-03  0.48714330245E-04  0.17130000000E+03  0.17130000000E+03 0. -1.
      622    1    1    2    0    0 -0.11264876890E-02 -0.40683128720E-03  0.39818961484E+01  0.39819064996E+01  0.90000000000E-02 0. -1.
</event>
<event>
 5   0  0.6135700E+09  0.9118800E+02  0.7818608E-02  0.1180000E+00
       11   -1    0    0    0    0  0.00000000000E+00  0.00000000000E+00  0.39999999673E+01  0.40000000000E+01  0.51109989000E-03 0.  1.
     -623   -1    0    0    0    0  0.00000000000E+00  0.00000000000E+00  0.12525980253E-10  0.17130000000E+03  0.17130000000E+03 0. -1.
       11    1    1    2    0    0  0.92076093165E-05  0.15812166277E-03  0.27806356582E-01  0.27811504395E-01  0.51109989000E-03 0.  1.
     -623    1    1    2    0    0 -0.20362750253E-04 -0.78166818091E-05  0.15313937952E-04  0.17130000000E+03  0.17130000000E+03 0. -1.
      622    1    1    2    0    0  0.11155140992E-04 -0.15030498094E-03  0.39721783077E+01  0.39721885065E+01  0.90000000000E-02 0.  1.
</event>
<event>
 5   0  0.6135700E+09  0.9118800E+02  0.7818608E-02  0.1180000E+00
       11   -1    0    0    0    0  0.00000000000E+00  0.00000000000E+00  0.39999999673E+01  0.40000000000E+01  0.51109989000E-03 0. -1.
     -623   -1    0    0    0    0  0.00000000000E+00  0.00000000000E+00  0.12525980253E-10  0.17130000000E+03  0.17130000000E+03 0. -1.
       11    1    1    2    0    0  0.32887784076E-02  0.14956756365E-02  0.23004031139E+00  0.23006924870E+00  0.51109989000E-03 0. -1.
     -623    1    1    2    0    0 -0.16421983163E-02 -0.42365191539E-02  0.41063770432E-04  0.17130000006E+03  0.17130000000E+03 0. -1.
      622    1    1    2    0    0 -0.16465800913E-02  0.27408435174E-02  0.37699185922E+01  0.37699306910E+01  0.90000000000E-02 0. -1.
</event>
<event>
 5   0  0.6135700E+09  0.9118800E+02  0.7818608E-02  0.1180000E+00
       11   -1    0    0    0    0  0.00000000000E+00  0.00000000000E+00  0.39999999673E+01  0.40000000000E+01  0.51109989000E-03 0. -1.
     -623   -1    0    0    0    0  0.00000000000E+00  0.00000000000E+00  0.12525980253E-10  0.17130000000E+03  0.17130000000E+03 0.  1.
       11    1    1    2    0    0  0.23416069492E-02  0.36758123175E-03  0.40233473141E+00  0.40234203802E+00  0.51109989000E-03 0. -1.
     -623    1    1    2    0    0 -0.24084971262E-04  0.41367848644E-03  0.19363090539E-04  0.17130000000E+03  0.17130000000E+03 0.  1.
      622    1    1    2    0    0 -0.23175219780E-02 -0.78125971819E-03  0.35976458729E+01  0.35976579615E+01  0.90000000000E-02 0. -1.
</event>
<event>
 5   0  0.6135700E+09  0.9118800E+02  0.7818608E-02  0.1180000E+00
       11   -1    0    0    0    0  0.00000000000E+00  0.00000000000E+00  0.39999999673E+01  0.40000000000E+01  0.51109989000E-03 0. -1.
     -623   -1    0    0    0    0  0.00000000000E+00  0.00000000000E+00  0.12525980253E-10  0.17130000000E+03  0.17130000000E+03 0.  1.
       11    1    1    2    0    0  0.58080022762E-03  0.51715821264E-03  0.13308309986E+00  0.13308635344E+00  0.51109989000E-03 0. -1.
     -623    1    1    2    0    0 -0.91422445885E-03  0.41028456189E-04  0.13751533648E-04  0.17130000000E+03  0.17130000000E+03 0.  1.
      622    1    1    2    0    0  0.33342423369E-03 -0.55818666894E-03  0.38669031267E+01  0.38669136549E+01  0.90000000000E-02 0. -1.
</event>
<event>
 5   0  0.6135700E+09  0.9118800E+02  0.7818608E-02  0.1180000E+00
       11   -1    0    0    0    0  0.00000000000E+00  0.00000000000E+00  0.39999999673E+01  0.40000000000E+01  0.51109989000E-03 0.  1.
     -623   -1    0    0    0    0  0.00000000000E+00  0.00000000000E+00  0.12525980253E-10  0.17130000000E+03  0.17130000000E+03 0. -1.
       11    1    1    2    0    0 -0.30676504636E-02 -0.28204127633E-02  0.93412622378E+00  0.93413565845E+00  0.51109989000E-03 0.  1.
     -623    1    1    2    0    0 -0.38006788171E-03  0.52844848134E-02  0.25622751858E-04  0.17130000008E+03  0.17130000000E+03 0. -1.
      622    1    1    2    0    0  0.34477183454E-02 -0.24640720511E-02  0.30658481215E+01  0.30658642603E+01  0.90000000000E-02 0.  1.
</event>
<event>
 5   0  0.6135700E+09  0.9118800E+02  0.7818608E-02  0.1180000E+00
       11   -1    0    0    0    0  0.00000000000E+00  0.00000000000E+00  0.39999999673E+01  0.40000000000E+01  0.51109989000E-03 0. -1.
     -623   -1    0    0    0    0  0.00000000000E+00  0.00000000000E+00  0.12525980253E-10  0.17130000000E+03  0.17130000000E+03 0. -1.
       11    1    1    2    0    0  0.80491848852E-02  0.14596309944E-02  0.10253891350E+01  0.10254218933E+01  0.51109989000E-03 0. -1.
     -623    1    1    2    0    0 -0.21379543634E-02 -0.27350942390E-03  0.52464720573E-04  0.17130000001E+03  0.17130000000E+03 0. -1.
      622    1    1    2    0    0 -0.59112305237E-02 -0.11861215708E-02  0.29745583641E+01  0.29745780896E+01  0.90000000000E-02 0.  0.
</event>
<event>
 5   0  0.6135700E+09  0.9118800E+02  0.7818608E-02  0.1180000E+00
       11   -1    0    0    0    0  0.00000000000E+00  0.00000000000E+00  0.39999999673E+01  0.40000000000E+01  0.51109989000E-03 0.  1.
     -623   -1    0    0    0    0  0.00000000000E+00  0.00000000000E+00  0.12525980253E-10  0.17130000000E+03  0.17130000000E+03 0. -1.
       11    1    1    2    0    0  0.13676249360E-02  0.75975147826E-04  0.11473287064E+00  0.11474218491E+00  0.51109989000E-03 0.  1.
     -623    1    1    2    0    0 -0.18009418755E-02 -0.10433678147E-02  0.19862907984E-04  0.17130000001E+03  0.17130000000E+03 0. -1.
      622    1    1    2    0    0  0.43331693951E-03  0.96739266688E-03  0.38852472338E+01  0.38852578024E+01  0.90000000000E-02 0.  1.
</event>
<event>
 5   0  0.6135700E+09  0.9118800E+02  0.7818608E-02  0.1180000E+00
       11   -1    0    0    0    0  0.00000000000E+00  0.00000000000E+00  0.39999999673E+01  0.40000000000E+01  0.51109989000E-03 0. -1.
     -623   -1    0    0    0    0  0.00000000000E+00  0.00000000000E+00  0.12525980253E-10  0.17130000000E+03  0.17130000000E+03 0. -1.
       11    1    1    2    0    0 -0.38781232185E-03 -0.69581575489E-03  0.22824240349E+00  0.22824436582E+00  0.51109989000E-03 0. -1.
     -623    1    1    2    0    0 -0.34993092931E-03 -0.12374252276E-03  0.12829007320E-04  0.17130000000E+03  0.17130000000E+03 0. -1.
      622    1    1    2    0    0  0.73774325116E-03  0.81955827766E-03  0.37717447349E+01  0.37717556338E+01  0.90000000000E-02 0. -1.
</event>
<event>
 5   0  0.6135700E+09  0.9118800E+02  0.7818608E-02  0.1180000E+00
       11   -1    0    0    0    0  0.00000000000E+00  0.00000000000E+00  0.39999999673E+01  0.40000000000E+01  0.51109989000E-03 0.  1.
     -623   -1    0    0    0    0  0.00000000000E+00  0.00000000000E+00  0.12525980253E-10  0.17130000000E+03  0.17130000000E+03 0.  1.
       11    1    1    2    0    0 -0.45919249072E-03  0.12145286013E-03  0.71346682542E-01  0.71350094193E-01  0.51109989000E-03 0.  1.
     -623    1    1    2    0    0  0.18503246393E-03  0.25594619066E-03  0.13715894585E-04  0.17130000000E+03  0.17130000000E+03 0.  1.
      622    1    1    2    0    0  0.27416002660E-03 -0.37739905106E-03  0.39286395731E+01  0.39286499097E+01  0.90000000000E-02 0.  1.
</event>
<event>
 5   0  0.6135700E+09  0.9118800E+02  0.7818608E-02  0.1180000E+00
       11   -1    0    0    0    0  0.00000000000E+00  0.00000000000E+00  0.39999999673E+01  0.40000000000E+01  0.51109989000E-03 0. -1.
     -623   -1    0    0    0    0  0.00000000000E+00  0.00000000000E+00  0.12525980253E-10  0.17130000000E+03  0.17130000000E+03 0. -1.
       11    1    1    2    0    0  0.11069930406E-03 -0.37176065184E-05  0.11228331207E+00  0.11228452991E+00  0.51109989000E-03 0. -1.
     -623    1    1    2    0    0 -0.18604711798E-03  0.13240730697E-03  0.11605659769E-04  0.17130000000E+03  0.17130000000E+03 0. -1.
      622    1    1    2    0    0  0.75347813921E-04 -0.12868970045E-03  0.38877050496E+01  0.38877154699E+01  0.90000000000E-02 0. -1.
</event>
<event>
 5   0  0.6135700E+09  0.9118800E+02  0.7818608E-02  0.1180000E+00
       11   -1    0    0    0    0  0.00000000000E+00  0.00000000000E+00  0.39999999673E+01  0.40000000000E+01  0.51109989000E-03 0.  1.
     -623   -1    0    0    0    0  0.00000000000E+00  0.00000000000E+00  0.12525980253E-10  0.17130000000E+03  0.17130000000E+03 0.  1.
       11    1    1    2    0    0 -0.99639692419E-03 -0.40169633379E-02  0.11924527224E+01  0.11924600141E+01  0.51109989000E-03 0.  1.
     -623    1    1    2    0    0 -0.29807765609E-03  0.17800401674E-02  0.22883597242E-04  0.17130000001E+03  0.17130000000E+03 0.  1.
      622    1    1    2    0    0  0.12944745802E-02  0.22369231712E-02  0.28075243599E+01  0.28075399749E+01  0.90000000000E-02 0.  1.
</event>
<event>
 5   0  0.6135700E+09  0.9118800E+02  0.7818608E-02  0.1180000E+00
       11   -1    0    0    0    0  0.00000000000E+00  0.00000000000E+00  0.39999999673E+01  0.40000000000E+01  0.51109989000E-03 0.  1.
     -623   -1    0    0    0    0  0.00000000000E+00  0.00000000000E+00  0.12525980253E-10  0.17130000000E+03  0.17130000000E+03 0. -1.
       11    1    1    2    0    0 -0.11499709140E-02  0.10238612953E-02  0.39522683701E+00  0.39523016667E+00  0.51109989000E-03 0.  1.
     -623    1    1    2    0    0  0.22767995678E-03 -0.93405816621E-03  0.14653945010E-04  0.17130000000E+03  0.17130000000E+03 0. -1.
      622    1    1    2    0    0  0.92229095726E-03 -0.89803129040E-04  0.36047584764E+01  0.36047698306E+01  0.90000000000E-02 0.  1.
</event>
<event>
 5   0  0.6135700E+09  0.9118800E+02  0.7818608E-02  0.1180000E+00
       11   -1    0    0    0    0  0.00000000000E+00  0.00000000000E+00  0.39999999673E+01  0.40000000000E+01  0.51109989000E-03 0.  1.
     -623   -1    0    0    0    0  0.00000000000E+00  0.00000000000E+00  0.12525980253E-10  0.17130000000E+03  0.17130000000E+03 0.  1.
       11    1    1    2    0    0  0.15769349188E-02  0.50451053870E-03  0.13538809024E+00  0.13539917819E+00  0.51109989000E-03 0.  1.
     -623    1    1    2    0    0 -0.18375744437E-03  0.25908043159E-03  0.21861913337E-04  0.17130000000E+03  0.17130000000E+03 0.  1.
      622    1    1    2    0    0 -0.13931774745E-02 -0.76359097029E-03  0.38645900152E+01  0.38646008215E+01  0.90000000000E-02 0.  1.
</event>
<event>
 5   0  0.6135700E+09  0.9118800E+02  0.7818608E-02  0.1180000E+00
       11   -1    0    0    0    0  0.00000000000E+00  0.00000000000E+00  0.39999999673E+01  0.40000000000E+01  0.51109989000E-03 0.  1.
     -623   -1    0    0    0    0  0.00000000000E+00  0.00000000000E+00  0.12525980253E-10  0.17130000000E+03  0.17130000000E+03 0. -1.
       11    1    1    2    0    0 -0.19921113364E-03  0.10708434563E-02  0.44431249593E-01  0.44447537094E-01  0.51109989000E-03 0.  1.
     -623    1    1    2    0    0 -0.51916194522E-03  0.19634329230E-04  0.26709981814E-04  0.17130000000E+03  0.17130000000E+03 0. -1.
      622    1    1    2    0    0  0.71837307886E-03 -0.10904777855E-02  0.39555420078E+01  0.39555524621E+01  0.90000000000E-02 0.  1.
</event>
<event>
 5   0  0.6135700E+09  0.9118800E+02  0.7818608E-02  0.1180000E+00
       11   -1    0    0    0    0  0.00000000000E+00  0.00000000000E+00  0.39999999673E+01  0.40000000000E+01  0.51109989000E-03 0. -1.
     -623   -1    0    0    0    0  0.00000000000E+00  0.00000000000E+00  0.12525980253E-10  0.17130000000E+03  0.17130000000E+03 0.  1.
       11    1    1    2    0    0 -0.64757109208E-03 -0.55999057688E-03  0.45542411800E-01  0.45553325144E-01  0.51109989000E-03 0. -1.
     -623    1    1    2    0    0 -0.58509996307E-05  0.11272346875E-03  0.21201669688E-04  0.17130000000E+03  0.17130000000E+03 0.  1.
      622    1    1    2    0    0  0.65342209171E-03  0.44726710813E-03  0.39544363539E+01  0.39544466748E+01  0.90000000000E-02 0. -1.
</event>
<event>
 5   0  0.6135700E+09  0.9118800E+02  0.7818608E-02  0.1180000E+00
       11   -1    0    0    0    0  0.00000000000E+00  0.00000000000E+00  0.39999999673E+01  0.40000000000E+01  0.51109989000E-03 0. -1.
     -623   -1    0    0    0    0  0.00000000000E+00  0.00000000000E+00  0.12525980253E-10  0.17130000000E+03  0.17130000000E+03 0.  1.
       11    1    1    2    0    0 -0.89024330686E-03 -0.14277493569E-02  0.39173084712E-01  0.39212533587E-01  0.51109989000E-03 0. -1.
     -623    1    1    2    0    0 -0.20890015267E-03  0.28906650574E-04  0.50041151978E-04  0.17130000000E+03  0.17130000000E+03 0.  1.
      622    1    1    2    0    0  0.10991434598E-02  0.13988427063E-02  0.39607768469E+01  0.39607874717E+01  0.90000000000E-02 0. -1.
</event>
<event>
 5   0  0.6135700E+09  0.9118800E+02  0.7818608E-02  0.1180000E+00
       11   -1    0    0    0    0  0.00000000000E+00  0.00000000000E+00  0.39999999673E+01  0.40000000000E+01  0.51109989000E-03 0. -1.
     -623   -1    0    0    0    0  0.00000000000E+00  0.00000000000E+00  0.12525980253E-10  0.17130000000E+03  0.17130000000E+03 0.  1.
       11    1    1    2    0    0 -0.91648889965E-03 -0.12715091361E-02  0.86668638304E+00  0.86668795103E+00  0.51109989000E-03 0. -1.
     -623    1    1    2    0    0 -0.60407480157E-03 -0.54409302337E-02  0.22107436482E-04  0.17130000009E+03  0.17130000000E+03 0.  1.
      622    1    1    2    0    0  0.15205637012E-02  0.67124393698E-02  0.31332914769E+01  0.31333119615E+01  0.90000000000E-02 0.  0.
</event>
<event>
 5   0  0.6135700E+09  0.9118800E+02  0.7818608E-02  0.1180000E+00
       11   -1    0    0    0    0  0.00000000000E+00  0.00000000000E+00  0.39999999673E+01  0.40000000000E+01  0.51109989000E-03 0.  1.
     -623   -1    0    0    0    0  0.00000000000E+00  0.00000000000E+00  0.12525980253E-10  0.17130000000E+03  0.17130000000E+03 0.  1.
       11    1    1    2    0    0 -0.34421073425E-02  0.12848525672E-02  0.39152463430E+00  0.39154220645E+00  0.51109989000E-03 0.  1.
     -623    1    1    2    0    0  0.16790395116E-02  0.14560016512E-02  0.30249226559E-04  0.17130000001E+03  0.17130000000E+03 0.  1.
      622    1    1    2    0    0  0.17630678299E-02 -0.27408542191E-02  0.36084450859E+01  0.36084577812E+01  0.90000000000E-02 0.  1.
</event>
<event>
 5   0  0.6135700E+09  0.9118800E+02  0.7818608E-02  0.1180000E+00
       11   -1    0    0    0    0  0.00000000000E+00  0.00000000000E+00  0.39999999673E+01  0.40000000000E+01  0.51109989000E-03 0.  1.
     -623   -1    0    0    0    0  0.00000000000E+00  0.00000000000E+00  0.12525980253E-10  0.17130000000E+03  0.17130000000E+03 0. -1.
       11    1    1    2    0    0 -0.27138590618E-03 -0.32471443779E-03  0.87581633112E-01  0.87584146793E-01  0.51109989000E-03 0. -1.
     -623    1    1    2    0    0  0.34127525715E-03 -0.70449025298E-03  0.12970500515E-04  0.17130000000E+03  0.17130000000E+03 0. -1.
      622    1    1    2    0    0 -0.69889350976E-04  0.10292046908E-02  0.39124053637E+01  0.39124158514E+01  0.90000000000E-02 0.  1.
</event>
<event>
 5   0  0.6135700E+09  0.9118800E+02  0.7818608E-02  0.1180000E+00
       11   -1    0    0    0    0  0.00000000000E+00  0.00000000000E+00  0.39999999673E+01  0.40000000000E+01  0.51109989000E-03 0.  1.
     -623   -1    0    0    0    0  0.00000000000E+00  0.00000000000E+00  0.12525980253E-10  0.17130000000E+03  0.17130000000E+03 0.  1.
       11    1    1    2    0    0 -0.25689405860E-03  0.19322585820E-02  0.13447255394E+00  0.13448765224E+00  0.51109989000E-03 0.  1.
     -623    1    1    2    0    0  0.87617125380E-04 -0.61836608035E-04  0.25999203919E-04  0.17130000000E+03  0.17130000000E+03 0.  1.
      622    1    1    2    0    0  0.16927693331E-03 -0.18704219741E-02  0.38655014102E+01  0.38655123437E+01  0.90000000000E-02 0.  1.
</event>
<event>
 5   0  0.6135700E+09  0.9118800E+02  0.7818608E-02  0.1180000E+00
       11   -1    0    0    0    0  0.00000000000E+00  0.00000000000E+00  0.39999999673E+01  0.40000000000E+01  0.51109989000E-03 0. -1.
     -623   -1    0    0    0    0  0.00000000000E+00  0.00000000000E+00  0.12525980253E-10  0.17130000000E+03  0.17130000000E+03 0. -1.
       11    1    1    2    0    0  0.18063579563E-02 -0.20918912276E-02  0.19776478080E+00  0.19778475341E+00  0.51109989000E-03 0. -1.
     -623    1    1    2    0    0 -0.50784497231E-03  0.12282259125E-02  0.30916654435E-04  0.17130000001E+03  0.17130000000E+03 0. -1.
      622    1    1    2    0    0 -0.12985129839E-02  0.86366531509E-03  0.38022042699E+01  0.38022152414E+01  0.90000000000E-02 0. -1.
</event>
<event>
 5   0  0.6135700E+09  0.9118800E+02  0.7818608E-02  0.1180000E+00
       11   -1    0    0    0    0  0.00000000000E+00  0.00000000000E+00  0.39999999673E+01  0.40000000000E+01  0.51109989000E-03 0.  1.
     -623   -1    0    0    0    0  0.00000000000E+00  0.00000000000E+00  0.12525980253E-10  0.17130000000E+03  0.17130000000E+03 0.  1.
       11    1    1    2    0    0 -0.51020752229E-03 -0.38603042790E-04  0.21827348565E-03  0.75542485196E-03  0.51109989000E-03 0.  1.
     -623    1    1    2    0    0  0.69680485717E-04  0.51081328996E-03  0.54729944229E-03  0.17130000000E+03  0.17130000000E+03 0.  1.
      622    1    1    2    0    0  0.44052703657E-03 -0.47221024717E-03  0.39992343944E+01  0.39992445735E+01  0.90000000000E-02 0.  1.
</event>
<event>
 5   0  0.6135700E+09  0.9118800E+02  0.7818608E-02  0.1180000E+00
       11   -1    0    0    0    0  0.00000000000E+00  0.00000000000E+00  0.39999999673E+01  0.40000000000E+01  0.51109989000E-03 0. -1.
     -623   -1    0    0    0    0  0.00000000000E+00  0.00000000000E+00  0.12525980253E-10  0.17130000000E+03  0.17130000000E+03 0.  1.
       11    1    1    2    0    0 -0.35035962571E-02 -0.86859097072E-02  0.35962482280E+00  0.35974712592E+00  0.51109989000E-03 0. -1.
     -623    1    1    2    0    0  0.12498134747E-02  0.88795480503E-03  0.14245292861E-03  0.17130000001E+03  0.17130000000E+03 0.  1.
      622    1    1    2    0    0  0.22537827824E-02  0.77979549022E-02  0.36402326916E+01  0.36402528672E+01  0.90000000000E-02 0. -1.
</event>
<event>
 5   0  0.6135700E+09  0.9118800E+02  0.7818608E-02  0.1180000E+00
       11   -1    0    0    0    0  0.00000000000E+00  0.00000000000E+00  0.39999999673E+01  0.40000000000E+01  0.51109989000E-03 0. -1.
     -623   -1    0    0    0    0  0.00000000000E+00  0.00000000000E+00  0.12525980253E-10  0.17130000000E+03  0.17130000000E+03 0.  1.
       11    1    1    2    0    0  0.20311989936E-02 -0.65692218701E-02  0.33791439567E+00  0.33798473408E+00  0.51109989000E-03 0. -1.
     -623    1    1    2    0    0 -0.14991153036E-01  0.54501058213E-02  0.10521190429E-03  0.17130000074E+03  0.17130000000E+03 0.  1.
      622    1    1    2    0    0  0.12959954055E-01  0.11191160442E-02  0.36619803632E+01  0.36620145266E+01  0.90000000000E-02 0. -1.
</event>
<event>
 5   0  0.6135700E+09  0.9118800E+02  0.7818608E-02  0.1180000E+00
       11   -1    0    0    0    0  0.00000000000E+00  0.00000000000E+00  0.39999999673E+01  0.40000000000E+01  0.51109989000E-03 0. -1.
     -623   -1    0    0    0    0  0.00000000000E+00  0.00000000000E+00  0.12525980253E-10  0.17130000000E+03  0.17130000000E+03 0.  1.
       11    1    1    2    0    0  0.40935839463E-03  0.61184000099E-03  0.53414097335E-02  0.54160690100E-02  0.51109989000E-03 0. -1.
     -623    1    1    2    0    0 -0.20912282814E-03  0.14103223215E-03  0.84841550743E-04  0.17130000000E+03  0.17130000000E+03 0.  1.
      622    1    1    2    0    0 -0.20023556622E-03 -0.75287223332E-03  0.39945737213E+01  0.39945839360E+01  0.90000000000E-02 0. -1.
</event>
<event>
 5   0  0.6135700E+09  0.9118800E+02  0.7818608E-02  0.1180000E+00
       11   -1    0    0    0    0  0.00000000000E+00  0.00000000000E+00  0.39999999673E+01  0.40000000000E+01  0.51109989000E-03 0.  1.
     -623   -1    0    0    0    0  0.00000000000E+00  0.00000000000E+00  0.12525980253E-10  0.17130000000E+03  0.17130000000E+03 0.  1.
       11    1    1    2    0    0  0.35231966690E-03  0.12368047161E-03  0.18817618627E-01  0.18828261203E-01  0.51109989000E-03 0.  1.
     -623    1    1    2    0    0 -0.39028098933E-03  0.10917194554E-05  0.20785414510E-04  0.17130000000E+03  0.17130000000E+03 0.  1.
      622    1    1    2    0    0  0.37961322349E-04 -0.12477219106E-03  0.39811615626E+01  0.39811717376E+01  0.90000000000E-02 0.  1.
</event>
<event>
 5   0  0.6135700E+09  0.9118800E+02  0.7818608E-02  0.1180000E+00
       11   -1    0    0    0    0  0.00000000000E+00  0.00000000000E+00  0.39999999673E+01  0.40000000000E+01  0.51109989000E-03 0.  1.
     -623   -1    0    0    0    0  0.00000000000E+00  0.00000000000E+00  0.12525980253E-10  0.17130000000E+03  0.17130000000E+03 0. -1.
       11    1    1    2    0    0 -0.46259069974E-02 -0.17062830315E-02  0.11902651323E+00  0.11912968770E+00  0.51109989000E-03 0.  1.
     -623    1    1    2    0    0  0.11408687386E-02  0.64062893950E-03  0.11529378271E-03  0.17130000001E+03  0.17130000000E+03 0. -1.
      622    1    1    2    0    0  0.34850382588E-02  0.10656540920E-02  0.38808581603E+01  0.38808703073E+01  0.90000000000E-02 0.  1.
</event>
<event>
 5   0  0.6135700E+09  0.9118800E+02  0.7818608E-02  0.1180000E+00
       11   -1    0    0    0    0  0.00000000000E+00  0.00000000000E+00  0.39999999673E+01  0.40000000000E+01  0.51109989000E-03 0.  1.
     -623   -1    0    0    0    0  0.00000000000E+00  0.00000000000E+00  0.12525980253E-10  0.17130000000E+03  0.17130000000E+03 0.  1.
       11    1    1    2    0    0  0.73408598933E-03 -0.16783542950E-03  0.12289557509E-01  0.12323209721E-01  0.51109989000E-03 0.  1.
     -623    1    1    2    0    0  0.33846999035E-03 -0.35036097027E-03  0.43954484531E-04  0.17130000000E+03  0.17130000000E+03 0.  1.
      622    1    1    2    0    0 -0.10725559797E-02  0.51819639982E-03  0.39876664559E+01  0.39876767902E+01  0.90000000000E-02 0.  1.
</event>
<event>
 5   0  0.6135700E+09  0.9118800E+02  0.7818608E-02  0.1180000E+00
       11   -1    0    0    0    0  0.00000000000E+00  0.00000000000E+00  0.39999999673E+01  0.40000000000E+01  0.51109989000E-03 0.  1.
     -623   -1    0    0    0    0  0.00000000000E+00  0.00000000000E+00  0.12525980253E-10  0.17130000000E+03  0.17130000000E+03 0.  1.
       11    1    1    2    0    0  0.22116961144E-02 -0.86396685874E-03  0.13769598548E+00  0.13771740514E+00  0.51109989000E-03 0.  1.
     -623    1    1    2    0    0 -0.47186606757E-04 -0.15460840654E-03  0.32613974802E-04  0.17130000000E+03  0.17130000000E+03 0.  1.
      622    1    1    2    0    0 -0.21645095075E-02  0.10185752656E-02  0.38622713771E+01  0.38622826040E+01  0.90000000000E-02 0.  1.
</event>
<event>
 5   0  0.6135700E+09  0.9118800E+02  0.7818608E-02  0.1180000E+00
       11   -1    0    0    0    0  0.00000000000E+00  0.00000000000E+00  0.39999999673E+01  0.40000000000E+01  0.51109989000E-03 0.  1.
     -623   -1    0    0    0    0  0.00000000000E+00  0.00000000000E+00  0.12525980253E-10  0.17130000000E+03  0.17130000000E+03 0.  1.
       11    1    1    2    0    0 -0.66003090072E-03 -0.50394620128E-03  0.20885460611E-01  0.20908211081E-01  0.51109989000E-03 0. -1.
     -623    1    1    2    0    0 -0.78866496064E-04 -0.24323442875E-03  0.33034995389E-04  0.17130000000E+03  0.17130000000E+03 0.  1.
      622    1    1    2    0    0  0.73889739662E-03  0.74718062954E-03  0.39790814636E+01  0.39790917806E+01  0.90000000000E-02 0.  1.
</event>
<event>
 5   0  0.6135700E+09  0.9118800E+02  0.7818608E-02  0.1180000E+00
       11   -1    0    0    0    0  0.00000000000E+00  0.00000000000E+00  0.39999999673E+01  0.40000000000E+01  0.51109989000E-03 0. -1.
     -623   -1    0    0    0    0  0.00000000000E+00  0.00000000000E+00  0.12525980253E-10  0.17130000000E+03  0.17130000000E+03 0.  1.
       11    1    1    2    0    0 -0.28953552116E-02  0.72696820139E-02  0.35746397403E+00  0.35754997596E+00  0.51109989000E-03 0. -1.
     -623    1    1    2    0    0  0.76154236048E-03 -0.23265485085E-02  0.10108488359E-03  0.17130000002E+03  0.17130000000E+03 0.  1.
      622    1    1    2    0    0  0.21338128511E-02 -0.49431335054E-02  0.36424349084E+01  0.36424500065E+01  0.90000000000E-02 0. -1.
</event>
<event>
 5   0  0.6135700E+09  0.9118800E+02  0.7818608E-02  0.1180000E+00
       11   -1    0    0    0    0  0.00000000000E+00  0.00000000000E+00  0.39999999673E+01  0.40000000000E+01  0.51109989000E-03 0. -1.
     -623   -1    0    0    0    0  0.00000000000E+00  0.00000000000E+00  0.12525980253E-10  0.17130000000E+03  0.17130000000E+03 0.  1.
       11    1    1    2    0    0 -0.81683335153E-03  0.64827245183E-05  0.88489307088E-01  0.88494553227E-01  0.51109989000E-03 0.  1.
     -623    1    1    2    0    0 -0.27404198164E-04  0.11481989200E-05  0.15658699916E-04  0.17130000000E+03  0.17130000000E+03 0.  1.
      622    1    1    2    0    0  0.84423754995E-03 -0.76309234492E-05  0.39114950398E+01  0.39115054850E+01  0.90000000000E-02 0. -1.
</event>
<event>
 5   0  0.6135700E+09  0.9118800E+02  0.7818608E-02  0.1180000E+00
       11   -1    0    0    0    0  0.00000000000E+00  0.00000000000E+00  0.39999999673E+01  0.40000000000E+01  0.51109989000E-03 0. -1.
     -623   -1    0    0    0    0  0.00000000000E+00  0.00000000000E+00  0.12525980253E-10  0.17130000000E+03  0.17130000000E+03 0. -1.
       11    1    1    2    0    0 -0.15624061109E-02  0.13109845368E-02  0.15275717765E+00  0.15277164770E+00  0.51109989000E-03 0. -1.
     -623    1    1    2    0    0 -0.43776450566E-03 -0.47905599334E-03  0.25575604937E-04  0.17130000000E+03  0.17130000000E+03 0. -1.
      622    1    1    2    0    0  0.20001706173E-02 -0.83192854264E-03  0.38472172213E+01  0.38472283582E+01  0.90000000000E-02 0. -1.
</event>
<event>
 5   0  0.6135700E+09  0.9118800E+02  0.7818608E-02  0.1180000E+00
       11   -1    0    0    0    0  0.00000000000E+00  0.00000000000E+00  0.39999999673E+01  0.40000000000E+01  0.51109989000E-03 0.  1.
     -623   -1    0    0    0    0  0.00000000000E+00  0.00000000000E+00  0.12525980253E-10  0.17130000000E+03  0.17130000000E+03 0. -1.
       11    1    1    2    0    0 -0.64917285701E-03 -0.19620836825E-02  0.10847804383E+01  0.10847825274E+01  0.51109989000E-03 0.  1.
     -623    1    1    2    0    0  0.83414493637E-03 -0.26589505737E-02  0.19640158529E-04  0.17130000002E+03  0.17130000000E+03 0. -1.
      622    1    1    2    0    0 -0.18497208633E-03  0.46210342783E-02  0.29151999223E+01  0.29152174834E+01  0.90000000000E-02 0.  0.
</event>
<event>
 5   0  0.6135700E+09  0.9118800E+02  0.7818608E-02  0.1180000E+00
       11   -1    0    0    0    0  0.00000000000E+00  0.00000000000E+00  0.39999999673E+01  0.40000000000E+01  0.51109989000E-03 0.  1.
     -623   -1    0    0    0    0  0.00000000000E+00  0.00000000000E+00  0.12525980253E-10  0.17130000000E+03  0.17130000000E+03 0. -1.
       11    1    1    2    0    0 -0.10291827517E-02 -0.13569120904E-02  0.10376514456E+01  0.10376529690E+01  0.51109989000E-03 0.  1.
     -623    1    1    2    0    0 -0.84496181449E-05  0.65465790886E-03  0.15428665843E-04  0.17130000000E+03  0.17130000000E+03 0. -1.
      622    1    1    2    0    0  0.10376323699E-02  0.70225417853E-03  0.29623331115E+01  0.29623470481E+01  0.90000000000E-02 0.  1.
</event>
<event>
 5   0  0.6135700E+09  0.9118800E+02  0.7818608E-02  0.1180000E+00
       11   -1    0    0    0    0  0.00000000000E+00  0.00000000000E+00  0.39999999673E+01  0.40000000000E+01  0.51109989000E-03 0.  1.
     -623   -1    0    0    0    0  0.00000000000E+00  0.00000000000E+00  0.12525980253E-10  0.17130000000E+03  0.17130000000E+03 0. -1.
       11    1    1    2    0    0  0.84524341142E-03 -0.11522746346E-02  0.27458703966E-01  0.27500614900E-01  0.51109989000E-03 0.  1.
     -623    1    1    2    0    0 -0.14186776853E-02  0.10587296115E-02  0.52125042952E-04  0.17130000001E+03  0.17130000000E+03 0. -1.
      622    1    1    2    0    0  0.57343427549E-03  0.93545021938E-04  0.39724891429E+01  0.39724993805E+01  0.90000000000E-02 0.  1.
</event>
<event>
 5   0  0.6135700E+09  0.9118800E+02  0.7818608E-02  0.1180000E+00
       11   -1    0    0    0    0  0.00000000000E+00  0.00000000000E+00  0.39999999673E+01  0.40000000000E+01  0.51109989000E-03 0. -1.
     -623   -1    0    0    0    0  0.00000000000E+00  0.00000000000E+00  0.12525980253E-10  0.17130000000E+03  0.17130000000E+03 0. -1.
       11    1    1    2    0    0 -0.21478680486E-02  0.22850242266E-02  0.19310378768E+00  0.19312992703E+00  0.51109989000E-03 0. -1.
     -623    1    1    2    0    0 -0.12904940591E-02  0.19848024960E-02  0.40709062436E-04  0.17130000002E+03  0.17130000000E+03 0. -1.
      622    1    1    2    0    0  0.34383621062E-02 -0.42698267205E-02  0.38068554662E+01  0.38068700522E+01  0.90000000000E-02 0. -1.
</event>
<event>
 5   0  0.6135700E+09  0.9118800E+02  0.7818608E-02  0.1180000E+00
       11   -1    0    0    0    0  0.00000000000E+00  0.00000000000E+00  0.39999999673E+01  0.40000000000E+01  0.51109989000E-03 0. -1.
     -623   -1    0    0    0    0  0.00000000000E+00  0.00000000000E+00  0.12525980253E-10  0.17130000000E+03  0.17130000000E+03 0.  1.
       11    1    1    2    0    0  0.46457571670E-03  0.23491263019E-02  0.15186265801E+00  0.15188239643E+00  0.51109989000E-03 0. -1.
     -623    1    1    2    0    0 -0.43137650602E-02 -0.18329939400E-02  0.32254292165E-04  0.17130000006E+03  0.17130000000E+03 0.  1.
      622    1    1    2    0    0  0.38491893435E-02 -0.51613236184E-03  0.38481050551E+01  0.38481175394E+01  0.90000000000E-02 0. -1.
</event>
<event>
 5   0  0.6135700E+09  0.9118800E+02  0.7818608E-02  0.1180000E+00
       11   -1    0    0    0    0  0.00000000000E+00  0.00000000000E+00  0.39999999673E+01  0.40000000000E+01  0.51109989000E-03 0.  1.
     -623   -1    0    0    0    0  0.00000000000E+00  0.00000000000E+00  0.12525980253E-10  0.17130000000E+03  0.17130000000E+03 0. -1.
       11    1    1    2    0    0  0.34453639656E-02  0.15016888861E-02  0.21157437540E+00  0.21160837211E+00  0.51109989000E-03 0.  1.
     -623    1    1    2    0    0 -0.20704818636E-02  0.69532858542E-02  0.54492765882E-04  0.17130000015E+03  0.17130000000E+03 0. -1.
      622    1    1    2    0    0 -0.13748821020E-02 -0.84549747403E-02  0.37883710992E+01  0.37883914742E+01  0.90000000000E-02 0.  0.
</event>
<event>
 5   0  0.6135700E+09  0.9118800E+02  0.7818608E-02  0.1180000E+00
       11   -1    0    0    0    0  0.00000000000E+00  0.00000000000E+00  0.39999999673E+01  0.40000000000E+01  0.51109989000E-03 0. -1.
     -623   -1    0    0    0    0  0.00000000000E+00  0.00000000000E+00  0.12525980253E-10  0.17130000000E+03  0.17130000000E+03 0.  1.
       11    1    1    2    0    0  0.39719747686E-03 -0.34568830231E-03  0.92438240354E-01  0.92441152996E-01  0.51109989000E-03 0. -1.
     -623    1    1    2    0    0 -0.13837024704E-06  0.15610297366E-03  0.13269386733E-04  0.17130000000E+03  0.17130000000E+03 0.  1.
      622    1    1    2    0    0 -0.39705910662E-03  0.18958532865E-03  0.39075484576E+01  0.39075588469E+01  0.90000000000E-02 0.  0.
</event>
<event>
 5   0  0.6135700E+09  0.9118800E+02  0.7818608E-02  0.1180000E+00
       11   -1    0    0    0    0  0.00000000000E+00  0.00000000000E+00  0.39999999673E+01  0.40000000000E+01  0.51109989000E-03 0.  1.
     -623   -1    0    0    0    0  0.00000000000E+00  0.00000000000E+00  0.12525980253E-10  0.17130000000E+03  0.17130000000E+03 0. -1.
       11    1    1    2    0    0  0.21516802870E-02  0.16574485682E-05  0.20197642588E+00  0.20198853325E+00  0.51109989000E-03 0.  1.
     -623    1    1    2    0    0 -0.14443044440E-03  0.40435324624E-03  0.23290880285E-04  0.17130000000E+03  0.17130000000E+03 0. -1.
      622    1    1    2    0    0 -0.20072498431E-02 -0.40601069337E-03  0.37980002363E+01  0.37980114519E+01  0.90000000000E-02 0.  1.
</event>
<event>
 5   0  0.6135700E+09  0.9118800E+02  0.7818608E-02  0.1180000E+00
       11   -1    0    0    0    0  0.00000000000E+00  0.00000000000E+00  0.39999999673E+01  0.40000000000E+01  0.51109989000E-03 0. -1.
     -623   -1    0    0    0    0  0.00000000000E+00  0.00000000000E+00  0.12525980253E-10  0.17130000000E+03  0.17130000000E+03 0.  1.
       11    1    1    2    0    0  0.34435138902E-03  0.32820158875E-03  0.23743950931E+00  0.23744053592E+00  0.51109989000E-03 0. -1.
     -623    1    1    2    0    0  0.46486424195E-04 -0.20018604479E-04  0.11790864614E-04  0.17130000000E+03  0.17130000000E+03 0.  1.
      622    1    1    2    0    0 -0.39083781331E-03 -0.30818298423E-03  0.37625486754E+01  0.37625594722E+01  0.90000000000E-02 0. -1.
</event>
<event>
 5   0  0.6135700E+09  0.9118800E+02  0.7818608E-02  0.1180000E+00
       11   -1    0    0    0    0  0.00000000000E+00  0.00000000000E+00  0.39999999673E+01  0.40000000000E+01  0.51109989000E-03 0.  1.
     -623   -1    0    0    0    0  0.00000000000E+00  0.00000000000E+00  0.12525980253E-10  0.17130000000E+03  0.17130000000E+03 0.  1.
       11    1    1    2    0    0  0.12822561300E-03  0.51838246243E-03  0.42834803473E+00  0.42834867251E+00  0.51109989000E-03 0.  1.
     -623    1    1    2    0    0 -0.10931988263E-03 -0.16541873709E-04  0.11979794266E-04  0.17130000000E+03  0.17130000000E+03 0.  1.
      622    1    1    2    0    0 -0.18905730196E-04 -0.50184058870E-03  0.35716399589E+01  0.35716513335E+01  0.90000000000E-02 0.  1.
</event>
<event>
 5   0  0.6135700E+09  0.9118800E+02  0.7818608E-02  0.1180000E+00
       11   -1    0    0    0    0  0.00000000000E+00  0.00000000000E+00  0.39999999673E+01  0.40000000000E+01  0.51109989000E-03 0.  1.
     -623   -1    0    0    0    0  0.00000000000E+00  0.00000000000E+00  0.12525980253E-10  0.17130000000E+03  0.17130000000E+03 0. -1.
       11    1    1    2    0    0 -0.14780041031E-01  0.11126173823E-01  0.41212976065E+00  0.41254507898E+00  0.51109989000E-03 0.  1.
     -623    1    1    2    0    0  0.14644403473E-01 -0.17574098653E-01  0.43390025171E-03  0.17130000153E+03  0.17130000000E+03 0. -1.
      622    1    1    2    0    0  0.13563755825E-03  0.64479248304E-02  0.35874363065E+01  0.35874533930E+01  0.90000000000E-02 0.  1.
</event>
<event>
 5   0  0.6135700E+09  0.9118800E+02  0.7818608E-02  0.1180000E+00
       11   -1    0    0    0    0  0.00000000000E+00  0.00000000000E+00  0.39999999673E+01  0.40000000000E+01  0.51109989000E-03 0.  1.
     -623   -1    0    0    0    0  0.00000000000E+00  0.00000000000E+00  0.12525980253E-10  0.17130000000E+03  0.17130000000E+03 0.  1.
       11    1    1    2    0    0 -0.45242593458E-03  0.27658290549E-03  0.24721065012E+00  0.24721174718E+00  0.51109989000E-03 0.  1.
     -623    1    1    2    0    0  0.31058235515E-04  0.86869487554E-04  0.11897685073E-04  0.17130000000E+03  0.17130000000E+03 0.  1.
      622    1    1    2    0    0  0.42136769907E-03 -0.36345239304E-03  0.37527774196E+01  0.37527882528E+01  0.90000000000E-02 0.  1.
</event>
<event>
 5   0  0.6135700E+09  0.9118800E+02  0.7818608E-02  0.1180000E+00
       11   -1    0    0    0    0  0.00000000000E+00  0.00000000000E+00  0.39999999673E+01  0.40000000000E+01  0.51109989000E-03 0.  1.
     -623   -1    0    0    0    0  0.00000000000E+00  0.00000000000E+00  0.12525980253E-10  0.17130000000E+03  0.17130000000E+03 0. -1.
       11    1    1    2    0    0  0.43465474991E-03  0.25633901277E-03  0.34719850311E-01  0.34727278372E-01  0.51109989000E-03 0.  1.
     -623    1    1    2    0    0 -0.20087521728E-03  0.10379921051E-03  0.17632503736E-04  0.17130000000E+03  0.17130000000E+03 0. -1.
      622    1    1    2    0    0 -0.23377953211E-03 -0.36013822355E-03  0.39652624950E+01  0.39652727320E+01  0.90000000000E-02 0.  1.
</event>
<event>
 5   0  0.6135700E+09  0.9118800E+02  0.7818608E-02  0.1180000E+00
       11   -1    0    0    0    0  0.00000000000E+00  0.00000000000E+00  0.39999999673E+01  0.40000000000E+01  0.51109989000E-03 0.  1.
     -623   -1    0    0    0    0  0.00000000000E+00  0.00000000000E+00  0.12525980253E-10  0.17130000000E+03  0.17130000000E+03 0.  1.
       11    1    1    2    0    0  0.28142925928E-02 -0.66315688871E-03  0.22048273646E+00  0.22050228642E+00  0.51109989000E-03 0.  1.
     -623    1    1    2    0    0 -0.12503573397E-02 -0.92342206358E-03  0.30896694885E-04  0.17130000001E+03  0.17130000000E+03 0.  1.
      622    1    1    2    0    0 -0.15639352555E-02  0.15865789505E-02  0.37794863264E+01  0.37794976987E+01  0.90000000000E-02 0.  1.
</event>
<event>
 5   0  0.6135700E+09  0.9118800E+02  0.7818608E-02  0.1180000E+00
       11   -1    0    0    0    0  0.00000000000E+00  0.00000000000E+00  0.39999999673E+01  0.40000000000E+01  0.51109989000E-03 0.  1.
     -623   -1    0    0    0    0  0.00000000000E+00  0.00000000000E+00  0.12525980253E-10  0.17130000000E+03  0.17130000000E+03 0. -1.
       11    1    1    2    0    0  0.28592014867E-03  0.86082909545E-04  0.30211960788E-01  0.30217758990E-01  0.51109989000E-03 0.  1.
     -623    1    1    2    0    0 -0.99322694704E-04  0.89946657871E-04  0.15975986657E-04  0.17130000000E+03  0.17130000000E+03 0. -1.
      622    1    1    2    0    0 -0.18659745300E-03 -0.17602956829E-03  0.39697720696E+01  0.39697822800E+01  0.90000000000E-02 0.  1.
</event>
<event>
 5   0  0.6135700E+09  0.9118800E+02  0.7818608E-02  0.1180000E+00
       11   -1    0    0    0    0  0.00000000000E+00  0.00000000000E+00  0.39999999673E+01  0.40000000000E+01  0.51109989000E-03 0.  1.
     -623   -1    0    0    0    0  0.00000000000E+00  0.00000000000E+00  0.12525980253E-10  0.17130000000E+03  0.17130000000E+03 0.  1.
       11    1    1    2    0    0  0.28099459010E-03 -0.35281175770E-03  0.99771513308E+00  0.99771536594E+00  0.51109989000E-03 0.  1.
     -623    1    1    2    0    0  0.22062238647E-03  0.25486974094E-03  0.13733812177E-04  0.17130000000E+03  0.17130000000E+03 0.  1.
      622    1    1    2    0    0 -0.50161697848E-03  0.97942014552E-04  0.30022711351E+01  0.30022846683E+01  0.90000000000E-02 0.  1.
</event>
<event>
 5   0  0.6135700E+09  0.9118800E+02  0.7818608E-02  0.1180000E+00
       11   -1    0    0    0    0  0.00000000000E+00  0.00000000000E+00  0.39999999673E+01  0.40000000000E+01  0.51109989000E-03 0.  1.
     -623   -1    0    0    0    0  0.00000000000E+00  0.00000000000E+00  0.12525980253E-10  0.17130000000E+03  0.17130000000E+03 0. -1.
       11    1    1    2    0    0  0.77144018801E-04  0.14442896352E-02  0.23522986438E+00  0.23523486613E+00  0.51109989000E-03 0.  1.
     -623    1    1    2    0    0 -0.40375955598E-03 -0.70810457148E-03  0.15814853864E-04  0.17130000000E+03  0.17130000000E+03 0. -1.
      622    1    1    2    0    0  0.32661553718E-03 -0.73618506376E-03  0.37647542881E+01  0.37647651319E+01  0.90000000000E-02 0.  1.
</event>
<event>
 5   0  0.6135700E+09  0.9118800E+02  0.7818608E-02  0.1180000E+00
       11   -1    0    0    0    0  0.00000000000E+00  0.00000000000E+00  0.39999999673E+01  0.40000000000E+01  0.51109989000E-03 0.  1.
     -623   -1    0    0    0    0  0.00000000000E+00  0.00000000000E+00  0.12525980253E-10  0.17130000000E+03  0.17130000000E+03 0. -1.
       11    1    1    2    0    0 -0.15248431779E-02  0.15194591017E-03  0.63596660620E-01  0.63617172971E-01  0.51109989000E-03 0.  1.
     -623    1    1    2    0    0 -0.11562049987E-03  0.10629495817E-02  0.31301003931E-04  0.17130000000E+03  0.17130000000E+03 0. -1.
      622    1    1    2    0    0  0.16404636778E-02 -0.12148954919E-02  0.39363720057E+01  0.39363828237E+01  0.90000000000E-02 0.  1.
</event>
<event>
 5   0  0.6135700E+09  0.9118800E+02  0.7818608E-02  0.1180000E+00
       11   -1    0    0    0    0  0.00000000000E+00  0.00000000000E+00  0.39999999673E+01  0.40000000000E+01  0.51109989000E-03 0. -1.
     -623   -1    0    0    0    0  0.00000000000E+00  0.00000000000E+00  0.12525980253E-10  0.17130000000E+03  0.17130000000E+03 0. -1.
       11    1    1    2    0    0  0.12207841644E-03  0.83641415438E-03  0.17289294191E+00  0.17289576362E+00  0.51109989000E-03 0. -1.
     -623    1    1    2    0    0 -0.40621798517E-03 -0.11969072281E-03  0.13449681048E-04  0.17130000000E+03  0.17130000000E+03 0. -1.
      622    1    1    2    0    0  0.28413956693E-03 -0.71672343210E-03  0.38270935581E+01  0.38271042181E+01  0.90000000000E-02 0. -1.
</event>
<event>
 5   0  0.6135700E+09  0.9118800E+02  0.7818608E-02  0.1180000E+00
       11   -1    0    0    0    0  0.00000000000E+00  0.00000000000E+00  0.39999999673E+01  0.40000000000E+01  0.51109989000E-03 0.  1.
     -623   -1    0    0    0    0  0.00000000000E+00  0.00000000000E+00  0.12525980253E-10  0.17130000000E+03  0.17130000000E+03 0.  1.
       11    1    1    2    0    0  0.39485289778E-02  0.24979187336E-02  0.52840156592E+00  0.52842246978E+00  0.51109989000E-03 0.  1.
     -623    1    1    2    0    0  0.15009629106E-02  0.10635738603E-01  0.61995149726E-04  0.17130000034E+03  0.17130000000E+03 0.  1.
      622    1    1    2    0    0 -0.54494918911E-02 -0.13133657355E-01  0.34715364134E+01  0.34715772006E+01  0.90000000000E-02 0.  1.
</event>
<event>
 5   0  0.6135700E+09  0.9118800E+02  0.7818608E-02  0.1180000E+00
       11   -1    0    0    0    0  0.00000000000E+00  0.00000000000E+00  0.39999999673E+01  0.40000000000E+01  0.51109989000E-03 0. -1.
     -623   -1    0    0    0    0  0.00000000000E+00  0.00000000000E+00  0.12525980253E-10  0.17130000000E+03  0.17130000000E+03 0.  1.
       11    1    1    2    0    0 -0.62844749929E-03 -0.65296145048E-03  0.49074547371E-01  0.49085575527E-01  0.51109989000E-03 0.  1.
     -623    1    1    2    0    0  0.46184713216E-04 -0.98227874044E-03  0.21630455066E-04  0.17130000000E+03  0.17130000000E+03 0.  1.
      622    1    1    2    0    0  0.58226278607E-03  0.16352401909E-02  0.39509037895E+01  0.39509144216E+01  0.90000000000E-02 0. -1.
</event>
<event>
 5   0  0.6135700E+09  0.9118800E+02  0.7818608E-02  0.1180000E+00
       11   -1    0    0    0    0  0.00000000000E+00  0.00000000000E+00  0.39999999673E+01  0.40000000000E+01  0.51109989000E-03 0.  1.
     -623   -1    0    0    0    0  0.00000000000E+00  0.00000000000E+00  0.12525980253E-10  0.17130000000E+03  0.17130000000E+03 0. -1.
       11    1    1    2    0    0  0.42967287151E-03 -0.13842392741E-02  0.49296146776E+00  0.49296386344E+00  0.51109989000E-03 0.  1.
     -623    1    1    2    0    0  0.10807006678E-03  0.37039168809E-04  0.14211294916E-04  0.17130000000E+03  0.17130000000E+03 0. -1.
      622    1    1    2    0    0 -0.53774293859E-03  0.13472001052E-02  0.35070242992E+01  0.35070361474E+01  0.90000000000E-02 0.  1.
</event>
<event>
 5   0  0.6135700E+09  0.9118800E+02  0.7818608E-02  0.1180000E+00
       11   -1    0    0    0    0  0.00000000000E+00  0.00000000000E+00  0.39999999673E+01  0.40000000000E+01  0.51109989000E-03 0. -1.
     -623   -1    0    0    0    0  0.00000000000E+00  0.00000000000E+00  0.12525980253E-10  0.17130000000E+03  0.17130000000E+03 0. -1.
       11    1    1    2    0    0 -0.18767379971E-02 -0.21294234838E-02  0.11417581997E+00  0.11421223961E+00  0.51109989000E-03 0. -1.
     -623    1    1    2    0    0  0.33123833276E-02  0.17148973008E-02  0.47137548171E-04  0.17130000004E+03  0.17130000000E+03 0. -1.
      622    1    1    2    0    0 -0.14356453305E-02  0.41452618303E-03  0.38857770098E+01  0.38857877198E+01  0.90000000000E-02 0. -1.
</event>
<event>
 5   0  0.6135700E+09  0.9118800E+02  0.7818608E-02  0.1180000E+00
       11   -1    0    0    0    0  0.00000000000E+00  0.00000000000E+00  0.39999999673E+01  0.40000000000E+01  0.51109989000E-03 0.  1.
     -623   -1    0    0    0    0  0.00000000000E+00  0.00000000000E+00  0.12525980253E-10  0.17130000000E+03  0.17130000000E+03 0.  1.
       11    1    1    2    0    0 -0.27096015543E-04 -0.75359709454E-03  0.82715021189E-01  0.82720037453E-01  0.51109989000E-03 0.  1.
     -623    1    1    2    0    0  0.68593860372E-04  0.13836189691E-04  0.15392528980E-04  0.17130000000E+03  0.17130000000E+03 0.  1.
      622    1    1    2    0    0 -0.41497845023E-04  0.73976090481E-03  0.39172695650E+01  0.39172799739E+01  0.90000000000E-02 0.  1.
</event>
<event>
 5   0  0.6135700E+09  0.9118800E+02  0.7818608E-02  0.1180000E+00
       11   -1    0    0    0    0  0.00000000000E+00  0.00000000000E+00  0.39999999673E+01  0.40000000000E+01  0.51109989000E-03 0.  1.
     -623   -1    0    0    0    0  0.00000000000E+00  0.00000000000E+00  0.12525980253E-10  0.17130000000E+03  0.17130000000E+03 0. -1.
       11    1    1    2    0    0  0.58338252416E-03 -0.14591898013E-02  0.16818730106E-01  0.16899718208E-01  0.51109989000E-03 0.  1.
     -623    1    1    2    0    0  0.37698403391E-03  0.45228355767E-03  0.91367518357E-04  0.17130000000E+03  0.17130000000E+03 0. -1.
      622    1    1    2    0    0 -0.96036655822E-03  0.10069062435E-02  0.39830898713E+01  0.39831002824E+01  0.90000000000E-02 0.  1.
</event>
<event>
 5   0  0.6135700E+09  0.9118800E+02  0.7818608E-02  0.1180000E+00
       11   -1    0    0    0    0  0.00000000000E+00  0.00000000000E+00  0.39999999673E+01  0.40000000000E+01  0.51109989000E-03 0. -1.
     -623   -1    0    0    0    0  0.00000000000E+00  0.00000000000E+00  0.12525980253E-10  0.17130000000E+03  0.17130000000E+03 0.  1.
       11    1    1    2    0    0  0.65741928440E-03  0.17426188567E-02  0.10040617303E-01  0.10224682857E-01  0.51109989000E-03 0. -1.
     -623    1    1    2    0    0 -0.58177923208E-03 -0.58439856127E-05  0.19456370512E-03  0.17130000000E+03  0.17130000000E+03 0.  1.
      622    1    1    2    0    0 -0.75640052348E-04 -0.17367748711E-02  0.39897647862E+01  0.39897753159E+01  0.90000000000E-02 0. -1.
</event>
<event>
 5   0  0.6135700E+09  0.9118800E+02  0.7818608E-02  0.1180000E+00
       11   -1    0    0    0    0  0.00000000000E+00  0.00000000000E+00  0.39999999673E+01  0.40000000000E+01  0.51109989000E-03 0. -1.
     -623   -1    0    0    0    0  0.00000000000E+00  0.00000000000E+00  0.12525980253E-10  0.17130000000E+03  0.17130000000E+03 0.  1.
       11    1    1    2    0    0 -0.45248099493E-02  0.14313767443E-02  0.48838809727E+00  0.48841142239E+00  0.51109989000E-03 0. -1.
     -623    1    1    2    0    0 -0.40290909946E-03  0.27322537374E-03  0.38697645784E-04  0.17130000000E+03  0.17130000000E+03 0.  1.
      622    1    1    2    0    0  0.49277190487E-02 -0.17046021181E-02  0.35115731724E+01  0.35115885769E+01  0.90000000000E-02 0. -1.
</event>
<event>
 5   0  0.6135700E+09  0.9118800E+02  0.7818608E-02  0.1180000E+00
       11   -1    0    0    0    0  0.00000000000E+00  0.00000000000E+00  0.39999999673E+01  0.40000000000E+01  0.51109989000E-03 0. -1.
     -623   -1    0    0    0    0  0.00000000000E+00  0.00000000000E+00  0.12525980253E-10  0.17130000000E+03  0.17130000000E+03 0. -1.
       11    1    1    2    0    0 -0.11898860933E-04 -0.27136392212E-03  0.23044970245E-01  0.23052237562E-01  0.51109989000E-03 0. -1.
     -623    1    1    2    0    0  0.33547261096E-04  0.21938963050E-05  0.17427551994E-04  0.17130000000E+03  0.17130000000E+03 0. -1.
      622    1    1    2    0    0 -0.21648400313E-04  0.26917002581E-03  0.39769375874E+01  0.39769477802E+01  0.90000000000E-02 0. -1.
</event>
<event>
 5   0  0.6135700E+09  0.9118800E+02  0.7818608E-02  0.1180000E+00
       11   -1    0    0    0    0  0.00000000000E+00  0.00000000000E+00  0.39999999673E+01  0.40000000000E+01  0.51109989000E-03 0. -1.
     -623   -1    0    0    0    0  0.00000000000E+00  0.00000000000E+00  0.12525980253E-10  0.17130000000E+03  0.17130000000E+03 0.  1.
       11    1    1    2    0    0  0.21246535358E-03 -0.10751982510E-03  0.15903375341E-01  0.15913367726E-01  0.51109989000E-03 0. -1.
     -623    1    1    2    0    0 -0.53363326307E-05  0.61716935510E-04  0.20130859021E-04  0.17130000000E+03  0.17130000000E+03 0.  1.
      622    1    1    2    0    0 -0.20712902094E-03  0.45802889480E-04  0.39840764682E+01  0.39840866393E+01  0.90000000000E-02 0. -1.
</event>
<event>
 5   0  0.6135700E+09  0.9118800E+02  0.7818608E-02  0.1180000E+00
       11   -1    0    0    0    0  0.00000000000E+00  0.00000000000E+00  0.39999999673E+01  0.40000000000E+01  0.51109989000E-03 0. -1.
     -623   -1    0    0    0    0  0.00000000000E+00  0.00000000000E+00  0.12525980253E-10  0.17130000000E+03  0.17130000000E+03 0. -1.
       11    1    1    2    0    0 -0.17221162812E-01 -0.42871746496E-02  0.40105354590E-01  0.43859423203E-01  0.51109989000E-03 0. -1.
     -623    1    1    2    0    0  0.17028011251E-01 -0.73842771856E-02  0.37825419190E-02  0.17130000105E+03  0.17130000000E+03 0. -1.
      622    1    1    2    0    0  0.19315156076E-03  0.11671451835E-01  0.39561120709E+01  0.39561395295E+01  0.90000000000E-02 0. -1.
</event>
<event>
 5   0  0.6135700E+09  0.9118800E+02  0.7818608E-02  0.1180000E+00
       11   -1    0    0    0    0  0.00000000000E+00  0.00000000000E+00  0.39999999673E+01  0.40000000000E+01  0.51109989000E-03 0.  1.
     -623   -1    0    0    0    0  0.00000000000E+00  0.00000000000E+00  0.12525980253E-10  0.17130000000E+03  0.17130000000E+03 0. -1.
       11    1    1    2    0    0 -0.35585973404E-02  0.15782615431E-02  0.11032295793E+00  0.11039280227E+00  0.51109989000E-03 0.  1.
     -623    1    1    2    0    0  0.52580788463E-02  0.31072312503E-02  0.83526383361E-04  0.17130000011E+03  0.17130000000E+03 0. -1.
      622    1    1    2    0    0 -0.16994815088E-02 -0.46854927951E-02  0.38895934853E+01  0.38896070910E+01  0.90000000000E-02 0.  1.
</event>
<event>
 5   0  0.6135700E+09  0.9118800E+02  0.7818608E-02  0.1180000E+00
       11   -1    0    0    0    0  0.00000000000E+00  0.00000000000E+00  0.39999999673E+01  0.40000000000E+01  0.51109989000E-03 0.  1.
     -623   -1    0    0    0    0  0.00000000000E+00  0.00000000000E+00  0.12525980253E-10  0.17130000000E+03  0.17130000000E+03 0. -1.
       11    1    1    2    0    0 -0.28631625711E-05 -0.25501070542E-03  0.71426276320E-03  0.91456650732E-03  0.51109989000E-03 0.  1.
     -623    1    1    2    0    0 -0.42914698714E-03  0.16734395227E-03  0.21042347618E-03  0.17130000000E+03  0.17130000000E+03 0. -1.
      622    1    1    2    0    0  0.43201014971E-03  0.87666753148E-04  0.39990752811E+01  0.39990854327E+01  0.90000000000E-02 0.  1.
</event>
<event>
 5   0  0.6135700E+09  0.9118800E+02  0.7818608E-02  0.1180000E+00
       11   -1    0    0    0    0  0.00000000000E+00  0.00000000000E+00  0.39999999673E+01  0.40000000000E+01  0.51109989000E-03 0. -1.
     -623   -1    0    0    0    0  0.00000000000E+00  0.00000000000E+00  0.12525980253E-10  0.17130000000E+03  0.17130000000E+03 0.  1.
       11    1    1    2    0    0  0.99061559040E-03 -0.20101191231E-02  0.45425480706E+00  0.45426062218E+00  0.51109989000E-03 0. -1.
     -623    1    1    2    0    0  0.27518381747E-03 -0.49756978687E-03  0.18318309403E-04  0.17130000000E+03  0.17130000000E+03 0.  1.
      622    1    1    2    0    0 -0.12657994080E-02  0.25076889101E-02  0.35457268436E+01  0.35457393784E+01  0.90000000000E-02 0.  0.
</event>
<event>
 5   0  0.6135700E+09  0.9118800E+02  0.7818608E-02  0.1180000E+00
       11   -1    0    0    0    0  0.00000000000E+00  0.00000000000E+00  0.39999999673E+01  0.40000000000E+01  0.51109989000E-03 0. -1.
     -623   -1    0    0    0    0  0.00000000000E+00  0.00000000000E+00  0.12525980253E-10  0.17130000000E+03  0.17130000000E+03 0.  1.
       11    1    1    2    0    0  0.51275171758E-02 -0.47226444728E-02  0.39557909098E-01  0.40170688300E-01  0.51109989000E-03 0. -1.
     -623    1    1    2    0    0  0.12567204341E-02  0.85016553622E-03  0.63002221495E-03  0.17130000001E+03  0.17130000000E+03 0.  1.
      622    1    1    2    0    0 -0.63842376099E-02  0.38724789366E-02  0.39598120361E+01  0.39598293039E+01  0.90000000000E-02 0. -1.
</event>
<event>
 5   0  0.6135700E+09  0.9118800E+02  0.7818608E-02  0.1180000E+00
       11   -1    0    0    0    0  0.00000000000E+00  0.00000000000E+00  0.39999999673E+01  0.40000000000E+01  0.51109989000E-03 0. -1.
     -623   -1    0    0    0    0  0.00000000000E+00  0.00000000000E+00  0.12525980253E-10  0.17130000000E+03  0.17130000000E+03 0. -1.
       11    1    1    2    0    0 -0.73267599051E-03 -0.35643382273E-02  0.30308265977E+00  0.30310493430E+00  0.51109989000E-03 0. -1.
     -623    1    1    2    0    0  0.26131252069E-03 -0.14220423147E-02  0.36596031655E-04  0.17130000001E+03  0.17130000000E+03 0. -1.
      622    1    1    2    0    0  0.47136346983E-03  0.49863805420E-02  0.36968807116E+01  0.36968950596E+01  0.90000000000E-02 0. -1.
</event>
<event>
 5   0  0.6135700E+09  0.9118800E+02  0.7818608E-02  0.1180000E+00
       11   -1    0    0    0    0  0.00000000000E+00  0.00000000000E+00  0.39999999673E+01  0.40000000000E+01  0.51109989000E-03 0. -1.
     -623   -1    0    0    0    0  0.00000000000E+00  0.00000000000E+00  0.12525980253E-10  0.17130000000E+03  0.17130000000E+03 0. -1.
       11    1    1    2    0    0 -0.26068338776E-02 -0.18149691283E-02  0.47646249728E+00  0.47647335941E+00  0.51109989000E-03 0. -1.
     -623    1    1    2    0    0  0.26584546825E-02  0.27145931732E-02  0.22481044216E-04  0.17130000004E+03  0.17130000000E+03 0. -1.
      622    1    1    2    0    0 -0.51620800725E-04 -0.89962404063E-03  0.35235149828E+01  0.35235265922E+01  0.90000000000E-02 0. -1.
</event>
<event>
 5   0  0.6135700E+09  0.9118800E+02  0.7818608E-02  0.1180000E+00
       11   -1    0    0    0    0  0.00000000000E+00  0.00000000000E+00  0.39999999673E+01  0.40000000000E+01  0.51109989000E-03 0. -1.
     -623   -1    0    0    0    0  0.00000000000E+00  0.00000000000E+00  0.12525980253E-10  0.17130000000E+03  0.17130000000E+03 0.  1.
       11    1    1    2    0    0  0.17238042683E-02  0.33267245915E-03  0.26589679027E+00  0.26590307721E+00  0.51109989000E-03 0. -1.
     -623    1    1    2    0    0 -0.97682361200E-04  0.60509578138E-04  0.17475121967E-04  0.17130000000E+03  0.17130000000E+03 0.  1.
      622    1    1    2    0    0 -0.16261219071E-02 -0.39318203729E-03  0.37340857020E+01  0.37340969227E+01  0.90000000000E-02 0. -1.
</event>
<event>
 5   0  0.6135700E+09  0.9118800E+02  0.7818608E-02  0.1180000E+00
       11   -1    0    0    0    0  0.00000000000E+00  0.00000000000E+00  0.39999999673E+01  0.40000000000E+01  0.51109989000E-03 0. -1.
     -623   -1    0    0    0    0  0.00000000000E+00  0.00000000000E+00  0.12525980253E-10  0.17130000000E+03  0.17130000000E+03 0.  1.
       11    1    1    2    0    0  0.14151713760E-02  0.54015810758E-02  0.90583388891E+00  0.90585124347E+00  0.51109989000E-03 0. -1.
     -623    1    1    2    0    0 -0.18407319927E-03 -0.17635973421E-03  0.35068333490E-04  0.17130000000E+03  0.17130000000E+03 0.  1.
      622    1    1    2    0    0 -0.12310981767E-02 -0.52252213416E-02  0.30941310101E+01  0.30941487563E+01  0.90000000000E-02 0. -1.
</event>
<event>
 5   0  0.6135700E+09  0.9118800E+02  0.7818608E-02  0.1180000E+00
       11   -1    0    0    0    0  0.00000000000E+00  0.00000000000E+00  0.39999999673E+01  0.40000000000E+01  0.51109989000E-03 0. -1.
     -623   -1    0    0    0    0  0.00000000000E+00  0.00000000000E+00  0.12525980253E-10  0.17130000000E+03  0.17130000000E+03 0.  1.
       11    1    1    2    0    0 -0.71963415592E-02 -0.25456923239E-03  0.10139955286E+01  0.10140212253E+01  0.51109989000E-03 0. -1.
     -623    1    1    2    0    0  0.64196313346E-04 -0.48046617306E-03  0.47836432066E-04  0.17130000000E+03  0.17130000000E+03 0.  1.
      622    1    1    2    0    0  0.71321452458E-02  0.73503540593E-03  0.29859566063E+01  0.29859787779E+01  0.90000000000E-02 0. -1.
</event>
<event>
 5   0  0.6135700E+09  0.9118800E+02  0.7818608E-02  0.1180000E+00
       11   -1    0    0    0    0  0.00000000000E+00  0.00000000000E+00  0.39999999673E+01  0.40000000000E+01  0.51109989000E-03 0.  1.
     -623   -1    0    0    0    0  0.00000000000E+00  0.00000000000E+00  0.12525980253E-10  0.17130000000E+03  0.17130000000E+03 0.  1.
       11    1    1    2    0    0 -0.36347321762E-03  0.21553331201E-02  0.56681682077E+00  0.56682126557E+00  0.51109989000E-03 0.  1.
     -623    1    1    2    0    0 -0.14984919452E-04  0.20078619745E-04  0.16918912377E-04  0.17130000000E+03  0.17130000000E+03 0.  1.
      622    1    1    2    0    0  0.37845813716E-03 -0.21754117399E-02  0.34331662515E+01  0.34331787582E+01  0.90000000000E-02 0.  1.
</event>
<event>
 5   0  0.6135700E+09  0.9118800E+02  0.7818608E-02  0.1180000E+00
       11   -1    0    0    0    0  0.00000000000E+00  0.00000000000E+00  0.39999999673E+01  0.40000000000E+01  0.51109989000E-03 0. -1.
     -623   -1    0    0    0    0  0.00000000000E+00  0.00000000000E+00  0.12525980253E-10  0.17130000000E+03  0.17130000000E+03 0.  1.
       11    1    1    2    0    0 -0.91973313147E-03 -0.63178607152E-02  0.17527494826E+00  0.17539193249E+00  0.51109989000E-03 0. -1.
     -623    1    1    2    0    0  0.31761172042E-02 -0.20532357346E-02  0.13740946939E-03  0.17130000004E+03  0.17130000000E+03 0.  1.
      622    1    1    2    0    0 -0.22563840751E-02  0.83710964513E-02  0.38245876126E+01  0.38246080287E+01  0.90000000000E-02 0. -1.
</event>
<event>
 5   0  0.6135700E+09  0.9118800E+02  0.7818608E-02  0.1180000E+00
       11   -1    0    0    0    0  0.00000000000E+00  0.00000000000E+00  0.39999999673E+01  0.40000000000E+01  0.51109989000E-03 0.  1.
     -623   -1    0    0    0    0  0.00000000000E+00  0.00000000000E+00  0.12525980253E-10  0.17130000000E+03  0.17130000000E+03 0.  1.
       11    1    1    2    0    0  0.15042616932E-02  0.94034778591E-03  0.10816184580E+01  0.10816200335E+01  0.51109989000E-03 0.  1.
     -623    1    1    2    0    0  0.33976717308E-02  0.64124546244E-03  0.20000819543E-04  0.17130000003E+03  0.17130000000E+03 0.  1.
      622    1    1    2    0    0 -0.49019334353E-02 -0.15815932505E-02  0.29183615219E+01  0.29183799449E+01  0.90000000000E-02 0.  0.
</event>
<event>
 5   0  0.6135700E+09  0.9118800E+02  0.7818608E-02  0.1180000E+00
       11   -1    0    0    0    0  0.00000000000E+00  0.00000000000E+00  0.39999999673E+01  0.40000000000E+01  0.51109989000E-03 0. -1.
     -623   -1    0    0    0    0  0.00000000000E+00  0.00000000000E+00  0.12525980253E-10  0.17130000000E+03  0.17130000000E+03 0.  1.
       11    1    1    2    0    0  0.63676513217E-03 -0.24064492229E-02  0.38592904718E-01  0.38676478426E-01  0.51109989000E-03 0. -1.
     -623    1    1    2    0    0 -0.69549070726E-03 -0.16864822451E-02  0.95889575675E-04  0.17130000001E+03  0.17130000000E+03 0.  1.
      622    1    1    2    0    0  0.58725575094E-04  0.40929314680E-02  0.39613111731E+01  0.39613235118E+01  0.90000000000E-02 0. -1.
</event>
<event>
 5   0  0.6135700E+09  0.9118800E+02  0.7818608E-02  0.1180000E+00
       11   -1    0    0    0    0  0.00000000000E+00  0.00000000000E+00  0.39999999673E+01  0.40000000000E+01  0.51109989000E-03 0.  1.
     -623   -1    0    0    0    0  0.00000000000E+00  0.00000000000E+00  0.12525980253E-10  0.17130000000E+03  0.17130000000E+03 0.  1.
       11    1    1    2    0    0  0.31653219837E-02  0.31261330008E-02  0.10658394123E+01  0.10658488195E+01  0.51109989000E-03 0.  1.
     -623    1    1    2    0    0 -0.18171992926E-02 -0.22415643881E-02  0.23644899315E-04  0.17130000002E+03  0.17130000000E+03 0.  1.
      622    1    1    2    0    0 -0.13481226911E-02 -0.88456861271E-03  0.29341369102E+01  0.29341511562E+01  0.90000000000E-02 0.  0.
</event>
<event>
 5   0  0.6135700E+09  0.9118800E+02  0.7818608E-02  0.1180000E+00
       11   -1    0    0    0    0  0.00000000000E+00  0.00000000000E+00  0.39999999673E+01  0.40000000000E+01  0.51109989000E-03 0. -1.
     -623   -1    0    0    0    0  0.00000000000E+00  0.00000000000E+00  0.12525980253E-10  0.17130000000E+03  0.17130000000E+03 0. -1.
       11    1    1    2    0    0  0.79094867978E-03  0.17884243446E-02  0.99417840165E+00  0.99418045625E+00  0.51109989000E-03 0. -1.
     -623    1    1    2    0    0  0.54236319153E-03 -0.69311798839E-06  0.16324061336E-04  0.17130000000E+03  0.17130000000E+03 0. -1.
      622    1    1    2    0    0 -0.13333118713E-02 -0.17877312266E-02  0.30058052416E+01  0.30058195429E+01  0.90000000000E-02 0.  1.
</event>
<event>
 5   0  0.6135700E+09  0.9118800E+02  0.7818608E-02  0.1180000E+00
       11   -1    0    0    0    0  0.00000000000E+00  0.00000000000E+00  0.39999999673E+01  0.40000000000E+01  0.51109989000E-03 0. -1.
     -623   -1    0    0    0    0  0.00000000000E+00  0.00000000000E+00  0.12525980253E-10  0.17130000000E+03  0.17130000000E+03 0.  1.
       11    1    1    2    0    0  0.19268391590E-03  0.91219386008E-03  0.64121588423E-01  0.64130402695E-01  0.51109989000E-03 0. -1.
     -623    1    1    2    0    0  0.84302121824E-04  0.59010695713E-05  0.19188467070E-04  0.17130000000E+03  0.17130000000E+03 0.  1.
      622    1    1    2    0    0 -0.27698603824E-03 -0.91809492968E-03  0.39358592149E+01  0.39358696218E+01  0.90000000000E-02 0. -1.
</event>
<event>
 5   0  0.6135700E+09  0.9118800E+02  0.7818608E-02  0.1180000E+00
       11   -1    0    0    0    0  0.00000000000E+00  0.00000000000E+00  0.39999999673E+01  0.40000000000E+01  0.51109989000E-03 0. -1.
     -623   -1    0    0    0    0  0.00000000000E+00  0.00000000000E+00  0.12525980253E-10  0.17130000000E+03  0.17130000000E+03 0.  1.
       11    1    1    2    0    0 -0.10436311116E-02  0.24699859677E-03  0.33294469312E-01  0.33315658222E-01  0.51109989000E-03 0. -1.
     -623    1    1    2    0    0  0.79240667240E-04 -0.40383053519E-03  0.31487152072E-04  0.17130000000E+03  0.17130000000E+03 0.  1.
      622    1    1    2    0    0  0.96439044432E-03  0.15683193843E-03  0.39666740109E+01  0.39666843413E+01  0.90000000000E-02 0. -1.
</event>
<event>
 5   0  0.6135700E+09  0.9118800E+02  0.7818608E-02  0.1180000E+00
       11   -1    0    0    0    0  0.00000000000E+00  0.00000000000E+00  0.39999999673E+01  0.40000000000E+01  0.51109989000E-03 0. -1.
     -623   -1    0    0    0    0  0.00000000000E+00  0.00000000000E+00  0.12525980253E-10  0.17130000000E+03  0.17130000000E+03 0.  1.
       11    1    1    2    0    0 -0.16716784471E-02 -0.10811810545E-02  0.25958833869E-01  0.26040079472E-01  0.51109989000E-03 0. -1.
     -623    1    1    2    0    0  0.61660649444E-03 -0.29317159290E-03  0.91783420240E-04  0.17130000000E+03  0.17130000000E+03 0.  1.
      622    1    1    2    0    0  0.10550719526E-02  0.13743526474E-02  0.39739493501E+01  0.39739599191E+01  0.90000000000E-02 0. -1.
</event>
<event>
 5   0  0.6135700E+09  0.9118800E+02  0.7818608E-02  0.1180000E+00
       11   -1    0    0    0    0  0.00000000000E+00  0.00000000000E+00  0.39999999673E+01  0.40000000000E+01  0.51109989000E-03 0. -1.
     -623   -1    0    0    0    0  0.00000000000E+00  0.00000000000E+00  0.12525980253E-10  0.17130000000E+03  0.17130000000E+03 0. -1.
       11    1    1    2    0    0  0.46994754419E-02  0.80467369015E-02  0.93413895426E+00  0.93418557158E+00  0.51109989000E-03 0. -1.
     -623    1    1    2    0    0  0.13044800125E-02 -0.14202630351E-02  0.72846042521E-04  0.17130000001E+03  0.17130000000E+03 0. -1.
      622    1    1    2    0    0 -0.60039554550E-02 -0.66264738657E-02  0.30657881690E+01  0.30658144195E+01  0.90000000000E-02 0. -1.
</event>
<event>
 5   0  0.6135700E+09  0.9118800E+02  0.7818608E-02  0.1180000E+00
       11   -1    0    0    0    0  0.00000000000E+00  0.00000000000E+00  0.39999999673E+01  0.40000000000E+01  0.51109989000E-03 0. -1.
     -623   -1    0    0    0    0  0.00000000000E+00  0.00000000000E+00  0.12525980253E-10  0.17130000000E+03  0.17130000000E+03 0.  1.
       11    1    1    2    0    0  0.81765650292E-03  0.12305812752E-02  0.12546615042E+00  0.12547589019E+00  0.51109989000E-03 0. -1.
     -623    1    1    2    0    0  0.70122729299E-05  0.10813216219E-03  0.20479104872E-04  0.17130000000E+03  0.17130000000E+03 0.  1.
      622    1    1    2    0    0 -0.82466877588E-03 -0.13387134378E-02  0.38745133529E+01  0.38745241248E+01  0.90000000000E-02 0.  0.
</event>
<event>
 5   0  0.6135700E+09  0.9118800E+02  0.7818608E-02  0.1180000E+00
       11   -1    0    0    0    0  0.00000000000E+00  0.00000000000E+00  0.39999999673E+01  0.40000000000E+01  0.51109989000E-03 0.  1.
     -623   -1    0    0    0    0  0.00000000000E+00  0.00000000000E+00  0.12525980253E-10  0.17130000000E+03  0.17130000000E+03 0.  1.
       11    1    1    2    0    0  0.37944332694E-02 -0.47659398900E-02  0.33536727677E+00  0.33542299184E+00  0.51109989000E-03 0.  1.
     -623    1    1    2    0    0 -0.12238131296E-03  0.50711359974E-04  0.71607609918E-04  0.17130000000E+03  0.17130000000E+03 0.  1.
      622    1    1    2    0    0 -0.36720519564E-02  0.47152285300E-02  0.36645610830E+01  0.36645770081E+01  0.90000000000E-02 0.  1.
</event>
<event>
 5   0  0.6135700E+09  0.9118800E+02  0.7818608E-02  0.1180000E+00
       11   -1    0    0    0    0  0.00000000000E+00  0.00000000000E+00  0.39999999673E+01  0.40000000000E+01  0.51109989000E-03 0.  1.
     -623   -1    0    0    0    0  0.00000000000E+00  0.00000000000E+00  0.12525980253E-10  0.17130000000E+03  0.17130000000E+03 0. -1.
       11    1    1    2    0    0  0.13380241677E-02 -0.21597014076E-02  0.28453866730E-01  0.28571635827E-01  0.51109989000E-03 0.  1.
     -623    1    1    2    0    0 -0.24886251247E-02  0.12623385478E-02  0.12822514682E-03  0.17130000002E+03  0.17130000000E+03 0. -1.
      622    1    1    2    0    0  0.11506009587E-02  0.89736285887E-03  0.39714178782E+01  0.39714283441E+01  0.90000000000E-02 0.  1.
</event>
<event>
 5   0  0.6135700E+09  0.9118800E+02  0.7818608E-02  0.1180000E+00
       11   -1    0    0    0    0  0.00000000000E+00  0.00000000000E+00  0.39999999673E+01  0.40000000000E+01  0.51109989000E-03 0.  1.
     -623   -1    0    0    0    0  0.00000000000E+00  0.00000000000E+00  0.12525980253E-10  0.17130000000E+03  0.17130000000E+03 0. -1.
       11    1    1    2    0    0 -0.67891471967E-04  0.29644098102E-02  0.10001126602E+00  0.10005651847E+00  0.51109989000E-03 0.  1.
     -623    1    1    2    0    0 -0.63555312850E-03  0.15917316669E-04  0.56808004886E-04  0.17130000000E+03  0.17130000000E+03 0. -1.
      622    1    1    2    0    0  0.70344460106E-03 -0.29803271269E-02  0.38999318971E+01  0.38999434841E+01  0.90000000000E-02 0.  1.
</event>
<event>
 5   0  0.6135700E+09  0.9118800E+02  0.7818608E-02  0.1180000E+00
       11   -1    0    0    0    0  0.00000000000E+00  0.00000000000E+00  0.39999999673E+01  0.40000000000E+01  0.51109989000E-03 0. -1.
     -623   -1    0    0    0    0  0.00000000000E+00  0.00000000000E+00  0.12525980253E-10  0.17130000000E+03  0.17130000000E+03 0.  1.
       11    1    1    2    0    0  0.85858236791E-03 -0.33017378440E-03  0.76683126946E-01  0.76690347240E-01  0.51109989000E-03 0. -1.
     -623    1    1    2    0    0 -0.29070144098E-03  0.27149427249E-02  0.18298234030E-04  0.17130000002E+03  0.17130000000E+03 0.  1.
      622    1    1    2    0    0 -0.56788092787E-03 -0.23847689317E-02  0.39232985292E+01  0.39233096180E+01  0.90000000000E-02 0. -1.
</event>
<event>
 5   0  0.6135700E+09  0.9118800E+02  0.7818608E-02  0.1180000E+00
       11   -1    0    0    0    0  0.00000000000E+00  0.00000000000E+00  0.39999999673E+01  0.40000000000E+01  0.51109989000E-03 0.  1.
     -623   -1    0    0    0    0  0.00000000000E+00  0.00000000000E+00  0.12525980253E-10  0.17130000000E+03  0.17130000000E+03 0. -1.
       11    1    1    2    0    0  0.43118664833E-04  0.10385586553E-02  0.34463618376E-01  0.34483078140E-01  0.51109989000E-03 0. -1.
     -623    1    1    2    0    0  0.12231605568E-03 -0.26741134913E-03  0.29718866546E-04  0.17130000000E+03  0.17130000000E+03 0. -1.
      622    1    1    2    0    0 -0.16543472063E-03 -0.77114730592E-03  0.39655066339E+01  0.39655169254E+01  0.90000000000E-02 0.  1.
</event>
<event>
 5   0  0.6135700E+09  0.9118800E+02  0.7818608E-02  0.1180000E+00
       11   -1    0    0    0    0  0.00000000000E+00  0.00000000000E+00  0.39999999673E+01  0.40000000000E+01  0.51109989000E-03 0.  1.
     -623   -1    0    0    0    0  0.00000000000E+00  0.00000000000E+00  0.12525980253E-10  0.17130000000E+03  0.17130000000E+03 0.  1.
       11    1    1    2    0    0  0.72213380464E-03  0.12848216448E-02  0.22758085807E+00  0.22758620439E+00  0.51109989000E-03 0.  1.
     -623    1    1    2    0    0 -0.13240956507E-03  0.15177066978E-04  0.16319661388E-04  0.17130000000E+03  0.17130000000E+03 0.  1.
      622    1    1    2    0    0 -0.58972423957E-03 -0.12999987118E-02  0.37724027896E+01  0.37724137956E+01  0.90000000000E-02 0.  1.
</event>
<event>
 5   0  0.6135700E+09  0.9118800E+02  0.7818608E-02  0.1180000E+00
       11   -1    0    0    0    0  0.00000000000E+00  0.00000000000E+00  0.39999999673E+01  0.40000000000E+01  0.51109989000E-03 0.  1.
     -623   -1    0    0    0    0  0.00000000000E+00  0.00000000000E+00  0.12525980253E-10  0.17130000000E+03  0.17130000000E+03 0. -1.
       11    1    1    2    0    0 -0.50548224480E-02 -0.71018564998E-02  0.12725431349E+00  0.12755355393E+00  0.51109989000E-03 0.  1.
     -623    1    1    2    0    0 -0.38212983003E-02 -0.11256237698E-02  0.32862576863E-03  0.17130000005E+03  0.17130000000E+03 0. -1.
      622    1    1    2    0    0  0.88761207497E-02  0.82274802700E-02  0.38724170296E+01  0.38724464009E+01  0.90000000000E-02 0.  1.
</event>
<event>
 5   0  0.6135700E+09  0.9118800E+02  0.7818608E-02  0.1180000E+00
       11   -1    0    0    0    0  0.00000000000E+00  0.00000000000E+00  0.39999999673E+01  0.40000000000E+01  0.51109989000E-03 0.  1.
     -623   -1    0    0    0    0  0.00000000000E+00  0.00000000000E+00  0.12525980253E-10  0.17130000000E+03  0.17130000000E+03 0. -1.
       11    1    1    2    0    0 -0.11351228879E-02  0.14513935060E-03  0.86055200315E-01  0.86064326474E-01  0.51109989000E-03 0.  1.
     -623    1    1    2    0    0  0.39091958045E-05  0.84384832690E-04  0.19611398907E-04  0.17130000000E+03  0.17130000000E+03 0. -1.
      622    1    1    2    0    0  0.11312136921E-02 -0.22952418329E-03  0.39139251556E+01  0.39139356735E+01  0.90000000000E-02 0.  1.
</event>
<event>
 5   0  0.6135700E+09  0.9118800E+02  0.7818608E-02  0.1180000E+00
       11   -1    0    0    0    0  0.00000000000E+00  0.00000000000E+00  0.39999999673E+01  0.40000000000E+01  0.51109989000E-03 0. -1.
     -623   -1    0    0    0    0  0.00000000000E+00  0.00000000000E+00  0.12525980253E-10  0.17130000000E+03  0.17130000000E+03 0. -1.
       11    1    1    2    0    0  0.42118201063E-03 -0.10315392593E-02  0.26419558487E-01  0.26447982178E-01  0.51109989000E-03 0.  1.
     -623    1    1    2    0    0  0.50987195573E-04  0.54124905784E-03  0.38642624321E-04  0.17130000000E+03  0.17130000000E+03 0. -1.
      622    1    1    2    0    0 -0.47216920635E-03  0.49029019987E-03  0.39735417779E+01  0.39735520286E+01  0.90000000000E-02 0. -1.
</event>
<event>
 5   0  0.6135700E+09  0.9118800E+02  0.7818608E-02  0.1180000E+00
       11   -1    0    0    0    0  0.00000000000E+00  0.00000000000E+00  0.39999999673E+01  0.40000000000E+01  0.51109989000E-03 0.  1.
     -623   -1    0    0    0    0  0.00000000000E+00  0.00000000000E+00  0.12525980253E-10  0.17130000000E+03  0.17130000000E+03 0.  1.
       11    1    1    2    0    0  0.29155272519E-02 -0.30580900345E-02  0.82300534846E+00  0.82301635283E+00  0.51109989000E-03 0.  1.
     -623    1    1    2    0    0  0.96623505025E-03  0.20608476443E-03  0.27374145031E-04  0.17130000000E+03  0.17130000000E+03 0.  1.
      622    1    1    2    0    0 -0.38817623022E-02  0.28520052701E-02  0.31769672448E+01  0.31769836443E+01  0.90000000000E-02 0.  0.
</event>
<event>
 5   0  0.6135700E+09  0.9118800E+02  0.7818608E-02  0.1180000E+00
       11   -1    0    0    0    0  0.00000000000E+00  0.00000000000E+00  0.39999999673E+01  0.40000000000E+01  0.51109989000E-03 0.  1.
     -623   -1    0    0    0    0  0.00000000000E+00  0.00000000000E+00  0.12525980253E-10  0.17130000000E+03  0.17130000000E+03 0.  1.
       11    1    1    2    0    0 -0.43858445309E-03 -0.11770721582E-02  0.22748057553E+00  0.22748461777E+00  0.51109989000E-03 0.  1.
     -623    1    1    2    0    0 -0.55893120071E-03  0.25424885656E-03  0.14991008540E-04  0.17130000000E+03  0.17130000000E+03 0.  1.
      622    1    1    2    0    0  0.99751565301E-03  0.92282330197E-03  0.37725043952E+01  0.37725153755E+01  0.90000000000E-02 0.  1.
</event>
<event>
 5   0  0.6135700E+09  0.9118800E+02  0.7818608E-02  0.1180000E+00
       11   -1    0    0    0    0  0.00000000000E+00  0.00000000000E+00  0.39999999673E+01  0.40000000000E+01  0.51109989000E-03 0.  1.
     -623   -1    0    0    0    0  0.00000000000E+00  0.00000000000E+00  0.12525980253E-10  0.17130000000E+03  0.17130000000E+03 0. -1.
       11    1    1    2    0    0  0.43739980598E-02  0.30447097461E-02  0.98266068962E+00  0.98267527407E+00  0.51109989000E-03 0.  1.
     -623    1    1    2    0    0  0.24333267709E-04 -0.12426394065E-03  0.32593443460E-04  0.17130000000E+03  0.17130000000E+03 0. -1.
      622    1    1    2    0    0 -0.43983313275E-02 -0.29204458051E-02  0.30173066926E+01  0.30173247341E+01  0.90000000000E-02 0.  1.
</event>
<event>
 5   0  0.6135700E+09  0.9118800E+02  0.7818608E-02  0.1180000E+00
       11   -1    0    0    0    0  0.00000000000E+00  0.00000000000E+00  0.39999999673E+01  0.40000000000E+01  0.51109989000E-03 0.  1.
     -623   -1    0    0    0    0  0.00000000000E+00  0.00000000000E+00  0.12525980253E-10  0.17130000000E+03  0.17130000000E+03 0.  1.
       11    1    1    2    0    0  0.46474031535E-02  0.52656929132E-02  0.81164538318E+00  0.81167592987E+00  0.51109989000E-03 0.  1.
     -623    1    1    2    0    0  0.59666215807E-03 -0.63609616461E-03  0.50892787495E-04  0.17130000000E+03  0.17130000000E+03 0.  1.
      622    1    1    2    0    0 -0.52440653118E-02 -0.46295967483E-02  0.31883036931E+01  0.31883240696E+01  0.90000000000E-02 0.  1.
</event>
<event>
 5   0  0.6135700E+09  0.9118800E+02  0.7818608E-02  0.1180000E+00
       11   -1    0    0    0    0  0.00000000000E+00  0.00000000000E+00  0.39999999673E+01  0.40000000000E+01  0.51109989000E-03 0. -1.
     -623   -1    0    0    0    0  0.00000000000E+00  0.00000000000E+00  0.12525980253E-10  0.17130000000E+03  0.17130000000E+03 0. -1.
       11    1    1    2    0    0 -0.27879170789E-03 -0.49722781515E-03  0.86765621659E-01  0.86768999560E-01  0.51109989000E-03 0. -1.
     -623    1    1    2    0    0  0.70742817658E-05  0.19130780711E-04  0.13733419308E-04  0.17130000000E+03  0.17130000000E+03 0. -1.
      622    1    1    2    0    0  0.27171742613E-03  0.47809703444E-03  0.39132206123E+01  0.39132310004E+01  0.90000000000E-02 0. -1.
</event>
<event>
 5   0  0.6135700E+09  0.9118800E+02  0.7818608E-02  0.1180000E+00
       11   -1    0    0    0    0  0.00000000000E+00  0.00000000000E+00  0.39999999673E+01  0.40000000000E+01  0.51109989000E-03 0.  1.
     -623   -1    0    0    0    0  0.00000000000E+00  0.00000000000E+00  0.12525980253E-10  0.17130000000E+03  0.17130000000E+03 0.  1.
       11    1    1    2    0    0  0.17502897635E-03 -0.30446569610E-03  0.22564903536E-01  0.22573423056E-01  0.51109989000E-03 0.  1.
     -623    1    1    2    0    0  0.70782476227E-03  0.45787730601E-04  0.18777218505E-04  0.17130000000E+03  0.17130000000E+03 0.  1.
      622    1    1    2    0    0 -0.88285373862E-03  0.25867796550E-03  0.39774162866E+01  0.39774265755E+01  0.90000000000E-02 0.  1.
</event>
<event>
 5   0  0.6135700E+09  0.9118800E+02  0.7818608E-02  0.1180000E+00
       11   -1    0    0    0    0  0.00000000000E+00  0.00000000000E+00  0.39999999673E+01  0.40000000000E+01  0.51109989000E-03 0.  1.
     -623   -1    0    0    0    0  0.00000000000E+00  0.00000000000E+00  0.12525980253E-10  0.17130000000E+03  0.17130000000E+03 0.  1.
       11    1    1    2    0    0  0.35679386449E-03  0.10400135469E-01  0.40987748687E-01  0.42291215225E-01  0.51109989000E-03 0.  1.
     -623    1    1    2    0    0 -0.29406641306E-02 -0.53579949964E-02  0.13178365436E-02  0.17130000011E+03  0.17130000000E+03 0.  1.
      622    1    1    2    0    0  0.25838702664E-02 -0.50421404720E-02  0.39576943825E+01  0.39577086710E+01  0.90000000000E-02 0.  1.
</event>
<event>
 5   0  0.6135700E+09  0.9118800E+02  0.7818608E-02  0.1180000E+00
       11   -1    0    0    0    0  0.00000000000E+00  0.00000000000E+00  0.39999999673E+01  0.40000000000E+01  0.51109989000E-03 0. -1.
     -623   -1    0    0    0    0  0.00000000000E+00  0.00000000000E+00  0.12525980253E-10  0.17130000000E+03  0.17130000000E+03 0.  1.
       11    1    1    2    0    0  0.45677153799E-03 -0.51095944896E-03  0.66258199714E-02  0.66807509449E-02  0.51109989000E-03 0. -1.
     -623    1    1    2    0    0 -0.56128127894E-03  0.57521472553E-03  0.65044067363E-04  0.17130000000E+03  0.17130000000E+03 0.  1.
      622    1    1    2    0    0  0.10450974100E-03 -0.64255276632E-04  0.39933091037E+01  0.39933192475E+01  0.90000000000E-02 0. -1.
</event>
<event>
 5   0  0.6135700E+09  0.9118800E+02  0.7818608E-02  0.1180000E+00
       11   -1    0    0    0    0  0.00000000000E+00  0.00000000000E+00  0.39999999673E+01  0.40000000000E+01  0.51109989000E-03 0. -1.
     -623   -1    0    0    0    0  0.00000000000E+00  0.00000000000E+00  0.12525980253E-10  0.17130000000E+03  0.17130000000E+03 0. -1.
       11    1    1    2    0    0 -0.53594963940E-04  0.76617738584E-03  0.69560681150E-01  0.69566798723E-01  0.51109989000E-03 0. -1.
     -623    1    1    2    0    0  0.14153714471E-03 -0.10205956643E-02  0.16401470894E-04  0.17130000000E+03  0.17130000000E+03 0. -1.
      622    1    1    2    0    0 -0.87942180768E-04  0.25441827845E-03  0.39304228847E+01  0.39304331982E+01  0.90000000000E-02 0. -1.
</event>
<event>
 5   0  0.6135700E+09  0.9118800E+02  0.7818608E-02  0.1180000E+00
       11   -1    0    0    0    0  0.00000000000E+00  0.00000000000E+00  0.39999999673E+01  0.40000000000E+01  0.51109989000E-03 0. -1.
     -623   -1    0    0    0    0  0.00000000000E+00  0.00000000000E+00  0.12525980253E-10  0.17130000000E+03  0.17130000000E+03 0.  1.
       11    1    1    2    0    0  0.68515446737E-03 -0.62638857410E-02  0.38095720176E+00  0.38100965407E+00  0.51109989000E-03 0. -1.
     -623    1    1    2    0    0 -0.22921013058E-02  0.24570219744E-02  0.66002644528E-04  0.17130000003E+03  0.17130000000E+03 0.  1.
      622    1    1    2    0    0  0.16069468384E-02  0.38068637666E-02  0.36189767630E+01  0.36189903130E+01  0.90000000000E-02 0. -1.
</event>
</LesHouchesEvents>
