<LesHouchesEvents version="1.0">
<header>
<!--
#*********************************************************************
#                                                                    *
#                       MadGraph/MadEvent                            *
#                                                                    *
#                      The new web generation                        *
#                                                                    *
#                   http://madgraph.hep.uiuc.edu                     *
#                   http://madgraph.phys.ucl.ac.be                   *
#                   http://madgraph.roma2.infn.it                    *
#                                                                    *
#            CP3 team                      Tim Stelzer               *
#      Universite de Louvain          University of Illinois         *
#                                                                    *
#....................................................................*
#                                                                    *
# This file contains all the information necessary to reproduce      *
# the events generated:                                              *
#                                                                    *
# 1. software version                                                *
# 2. proc_card.dat      : code generation info including model       *
# 3. param_card.dat     : model primary parameters in the LH format  *
# 4. run_card.dat       : running parameters (collider and cuts)     *
# 5. pythia_card.dat    : present only in the pythia event file      *
# 6. pgs_card.dat       : present only in the pgs event file         *
#                                                                    *
#                                                                    *
#*********************************************************************
-->
<MGVersion>
# MG/ME version    : 4.4.17
# madgraph version : 4.4.2
# template version : 2.4.8
# helas version    : 3.5
# model version    : usrmod_1.0.4
</MGVersion>
<MGProcCard>
#*********************************************************************
#                        MadGraph/MadEvent                           *
#                   http://madgraph.hep.uiuc.edu                     *
#                                                                    *
#                          proc_card.dat                             *
#                                                                    *
# This file is used to generate the code for a specific process.     *
# Some notation/conventions:                                         *
#                                                                    *
# 0. Do not modify the TAGS and their order.                         *
# 1. hash/pound is a comment.                                        *
# 2. The number after the @ is used as an identifier for the class   *
#    of processes. It can be any positive integer.                   *
# 3. The number of lines for the max couplings depends on how many   *
#    different classes of couplings are present in the model         *
#    In the SM these are just two: QED (which include EW) and QCD    *
# 4. Write "end_coup" after  the couplings list,                     *
#    to tell MG that the couplings input is over.                    *
# 5. Write "done" after the proc list to                             *
#    to tell MG that the proc input is over.                         *
# 6. Some model names available at present are:                      *
#    sm     =  Standard Model                                        *
#    smckm =  Standard Model with Cabibbo matrix                     *
#    mssm   =  Minimal Supersymmetric Standard Model                 *
#    2hdm   =  Generic Two Higgs Doublet model                       *
#    heft   =  Higgs EFT (+Standard Model)                           *
#    usrmod =  User Model                                            *
# 7. Don't leave spaces between the particles name in the            *
#    definition of the multiparticles.                               *
#*********************************************************************
#*********************************************************************
# Process(es) requested : mg2 input                                  *
#*********************************************************************
# Begin PROCESS # This is TAG. Do not modify this line
e- N+ > e- N+ x      # Radiative
QCD=0             # Max QCD couplings
QED=1             # Max QED couplings
QFD=0 
QND=1
QWD=9
QDS=2
end_coup           # End the couplings input
done               # this tells MG there are no more procs
# End PROCESS  # This is TAG. Do not modify this line
#*********************************************************************
# Model information                                                  *
#*********************************************************************
# Begin MODEL  # This is TAG. Do not modify this line
fixedAP2     
# End   MODEL  # This is TAG. Do not modify this line
#*********************************************************************
# Start multiparticle definitions                                    *
#*********************************************************************
# Begin MULTIPARTICLES # This is TAG. Do not modify this line
P uu~cc~dd~ss~gf+f-
J uu~cc~dd~ss~gf+f-
L+ e+mu+
L- e-mu-
vl vevm
vl~ ve~vm~
# End  MULTIPARTICLES # This is TAG. Do not modify this line
</MGProcCard>
<slha>
#*********************************************************************
#                        MadGraph/MadEvent                           *
#                   http://madgraph.hep.uiuc.edu                     *
#                                                                    *
#                         param_card.dat                             *
#                                                                    *
#   Les Houches friendly file for the SM parameters of MadGraph      *
#        Spectrum and decay widths produced by SMCalc                *
#                                                                    *
#  Please note the following IMPORTANT issues:                       *
#                                                                    *
# 0. REFRAIN from editing this file by hand! Some of the parame-     *
#    ters are not independent                                        *
#    (such as G_Fermi, alpha_em, sin(theta_W),MZ,MW) and serious     *
#    problems might be encountered (such as violation of unitarity   *
#    or gauge invariance).  Always use a calculator.                 *
#                                                                    *
# 1. alpha_S(MZ) has been used in the calculation of the parameters  *
#    but, for consistency, it will be reset by madgraph to the       *
#    value expected IF the pdfs for collisions with hadrons are      *
#    used. This value is KEPT by madgraph when no pdf are used       *
#    lpp(i)=0 .                                                      *
#                                                                    *
#  2. Values of the charm and bottom kinematic (pole) masses are     *
#     those used in the matrix elements and phase space UNLESS they  *
#     are set to ZERO from the start in the model (particles.dat)    *
#     This happens, for example,  when using 5-flavor QCD where      *
#     charm and bottom are treated as partons in the initial state   *
#     and a zero mass might be hardwired in the model definition.    *
#                                                                    *
##********************************************************************
Block MODSEL # Select Model
     0   1   #  0 1 = SM
Block SMINPUTS      # Standard Model inputs
     1         1.27900000E+02   # alpha_em(MZ)(-1) SM MSbar
     2         1.16600000E-05   # G_Fermi
     3         1.18000000E-01   # alpha_s(MZ) SM MSbar
     4         9.15445065E+01   # Z mass (as input parameter)
Block MGYUKAWA     # Yukawa masses m/v=y/sqrt(2)
#    PDG          YMASS
     5         4.20000000E+00   # mbottom for the Yukawa  y_b
     4         1.25000000E+00   # mcharm  for the Yukawa  y_c
     6         1.74300000E+02   # mtop    for the Yukawa  y_t
    15         1.77700000E+00   # mtau    for the Yukawa  y_ta
Block MGCKM     # CKM elements for MadGraph
     1   1     9.75000000E-01   # Vud for Cabibbo matrix
#===========================================================
# QUANTUM NUMBERS OF NEW STATE(S) (NON SM PDG CODE) IF ANY
# (see below for masses and decay tables)
# These blocks are automatically created by the MadGraph
# qnumbers.pl script from the particles.dat model file
#===========================================================
BLOCK QNUMBERS 611 # f-
         1  -3 # 3 times electric charge
         2  2 # number of spin states (2S+1)
         3  1 # colour rep (1: singlet, 3: triplet, 8: octet)
         4  1 # Particle/Antiparticle distinction (0=own anti)
BLOCK QNUMBERS 622 # x
         1  0 # 3 times electric charge
         2  3 # number of spin states (2S+1)
         3  1 # colour rep (1: singlet, 3: triplet, 8: octet)
         4  0 # Particle/Antiparticle distinction (0=own anti)
BLOCK QNUMBERS 623 # N-
         1  0 # 3 times electric charge
         2  2 # number of spin states (2S+1)
         3  1 # colour rep (1: singlet, 3: triplet, 8: octet)
         4  1 # Particle/Antiparticle distinction (0=own anti)
# END of QNUMBERS blocks
#===========================================================
Block MASS      #  Mass spectrum (kinematic masses)
#       PDG       Mass
         4     1.40000000E+00   # charm    pole mass
         5     4.20000000E+00   # bottom   pole mass
         6     1.74300000E+02   # top      pole mass
        11     0.51109989E-03   # electron mass
        13     0.10565837E+00   # muon     mass
        15     1.77700000E+00   # tau      mass
        23     9.15445065E+01   # Z        mass
        24     8.02673592E+01   # W        mass
        25     1.20000000E+02   # H        mass
       611 0.005 # FMASS
       622 0.015 # APMASS
       623     1.71300000e+02   # HPMASS (tungsten)
#            PDG       Width
DECAY       611     0.00000000e+00   # ELWIDTH
DECAY 622 0.00045549532875 # APWIDTH
DECAY       623     0.00000000e+00   # HPWIDTH
DECAY         6     1.51013490E+00   # top width
DECAY        23     2.44639985E+00   # Z   width
DECAY        24     2.03535570E+00   # W   width
DECAY        25     6.79485838E-03   # H   width
#        BR           NDA        ID1       ID2
     7.00588389E-02    2           4        -4   # BR( H -> c  cbar  )
     7.61074375E-01    2           5        -5   # BR( H -> b  bbar  )
     0.00000000E+00    2           6        -6   # BR( H -> t  tbar  )
     3.65529942E-02    2          15       -15   # BR( H -> tau- tau+)
     5.84716539E-03    2          23        23   # BR( H -> Z   Z^(*))
     6.31545979E-02    2          24       -24   # BR( H -> W   W^(*))
     2.55499652E-02    2          21        21   # BR( H -> g   g    )
     1.20906932E-03    2          22        22   # BR( H -> A   A    )
BLOCK MGUSER
         1     1.00000000e-00   # epsilon ,mixing coefficient
         2     74.0000000e+00   # Znuc    ,nuclear charge
</slha>
<MGRunCard>
#*********************************************************************
#                       MadGraph/MadEvent                            *
#                  http://madgraph.hep.uiuc.edu                      *
#                                                                    *
#                        run_card.dat                                *
#                                                                    *
#  This file is used to set the parameters of the run.               *
#                                                                    *
#  Some notation/conventions:                                        *
#                                                                    *
#   Lines starting with a '# ' are info or comments                  *
#                                                                    *
#   mind the format:   value    = variable     ! comment             *
#*********************************************************************
#
#*******************                                                 
# Running parameters
#*******************                                                 
#                                                                    
#*********************************************************************
# Tag name for the run (one word)                                    *
#*********************************************************************
  'HPS'     = run_tag ! name of the run 
#*********************************************************************
# Run to generate the grid pack                                      *
#*********************************************************************
  .false.     = gridpack  !True = setting up the grid pack
#*********************************************************************
# Number of events and rnd seed                                      *
#*********************************************************************
   1000      = nevents ! Number of unweighted events requested 
188705 = iseed ! rnd seed (0=assigned automatically=default))
#*********************************************************************
# Collider type and energy                                           *
#*********************************************************************
        0     = lpp1  ! beam 1 type (0=NO PDF)
        0     = lpp2  ! beam 2 type (0=NO PDF)
4 = ebeam1  ! beam 1 energy in GeV
    171.3    = ebeam2  ! beam 2 energy in GeV
    0.000511  = mbeam1  ! beam 1 energy in GeV
    171.3    = mbeam2  ! beam 2 energy in GeV
#*********************************************************************
# Beam polarization from -100 (left-handed) to 100 (right-handed)    *
#*********************************************************************
        0     = polbeam1 ! beam polarization for beam 1
        0     = polbeam2 ! beam polarization for beam 2
#*********************************************************************
# PDF CHOICE: this automatically fixes also alpha_s and its evol.    *
#*********************************************************************
 'cteq6l1'    = pdlabel     ! PDF set                                     
#*********************************************************************
# Renormalization and factorization scales                           *
#*********************************************************************
 F        = fixed_ren_scale  ! if .true. use fixed ren scale
 F        = fixed_fac_scale  ! if .true. use fixed fac scale
 91.1880  = scale            ! fixed ren scale
 91.1880  = dsqrt_q2fact1    ! fixed fact scale for pdf1
 91.1880  = dsqrt_q2fact2    ! fixed fact scale for pdf2
 1        = scalefact        ! scale factor for event-by-event scales
 F        = fixed_couplings  ! if .false. calc. coupl. for every event
#*********************************************************************
# Matching - Warning! ickkw > 0 is still beta
#*********************************************************************
 0        = ickkw            ! 0 no matching, 1 MLM, 2 CKKW matching
#*********************************************************************
#                                                                    
#**********************************
32.9311829414 = bwcutoff*Gamma)
#**********************************
32.9311829414 = bwcutoff
#*******************                                                 
# Fixed-Target Cuts
#*******************                                                 
#
 0.0 = ef        ! minimum E for all f's
 100.0 = efmax     ! maximum E for all f's
 0.0 = thetafmin ! min angle for both f's
 100.0 = thetafmax ! max angle for both f's
 0.0 = thetaxfmin ! min angle (x direction) for both f's
 100.0 = thetaxfmax ! max angle (x direction) for both f's 
 0.0 = thetayfmin ! min angle (y direction) for both f's
 100.0 = thetayfmax ! max angle (y direction) for both f's 
 0.0 = xthetaxfmin ! min angle (x direction) for >=1 f's
 100.0 = xthetaxfmax ! max angle (x direction) for >=1 f's 
 0.0 = xthetayfmin ! min angle (y direction) for >=1 f's
 100.0 = xthetayfmax ! max angle (y direction) for >=1 f's 
 0.0 = mmff      ! min invariant mass of f+f- lepton pair
 100.0 = mmffmax  ! max invariant mass of f+f- lepton pair
 0.0 = xef       ! min. energy for at least one f
 0.0 = xthetaf   ! minimum angle for at least one f
 0.0 = eftot     ! minimum energy for the two f's
 0d0 = efrat     ! min. ratio Emin/Emax for the two f's
 0.0  = el     !!! 0.2 = el  !!! was 0.05 with normal cuts! minimum E for the charged leptons 
 0.0  = drll  !!! was 0.1  ! min distance between leptons 
 0.0  = mmll    ! min invariant mass of l+l- (same flavour) lepton pair
#
#*******************                                                 
# Standard Cuts
#*******************                                                 
#                                                                    
#*********************************************************************
# Minimum and maximum pt's                                           *
#*********************************************************************
  0  = ptj       ! minimum pt for the jets 
  0  = ptb       ! minimum pt for the b 
  0  = pta       ! minimum pt for the photons 
  0  = ptl       ! minimum pt for the charged leptons 
  0  = misset    ! minimum missing Et (sum of neutrino's momenta)
  0  = ptheavy   ! minimum pt for one heavy final state
 1.0 = ptonium   ! minimum pt for the quarkonium states
 1d5 = ptjmax    ! maximum pt for the jets
 1d5 = ptbmax    ! maximum pt for the b
 1d5 = ptamax    ! maximum pt for the photons
 1d9 = ptlmax    ! maximum pt for the charged leptons
 1d9 = missetmax ! maximum missing Et (sum of neutrino's momenta)
#*********************************************************************
# Minimum and maximum E's (in the lab frame)                         *
#*********************************************************************
  0  = ej     ! minimum E for the jets 
  0  = eb     ! minimum E for the b 
  0  = ea     ! minimum E for the photons 
 1d5  = ejmax ! maximum E for the jets
 1d5  = ebmax ! maximum E for the b
 1d5  = eamax ! maximum E for the photons
 1.2  = elmax ! maximum E for the charged leptons
#*********************************************************************
# Maximum and minimum rapidity                                       *
#*********************************************************************
 1d5  = etaj    ! max rap for the jets 
 1d5  = etab    ! max rap for the b 
 1d5  = etaa    ! max rap for the photons 
 1d5  = etal     !!! 1(2) wth cuts ! max rap for the charged leptons 
 1d5  = etafl     !!! 0(1) wth cuts ! max rap for the charged leptons 
 0.0  = etaonium ! max rap for the quarkonium states
 0d0  = etajmin ! min rap for the jets
 0d0  = etabmin ! min rap for the b
 0d0  = etaamin ! min rap for the photons
 0d0  = etalmin ! main rap for the charged lepton
#*********************************************************************
# Minimum and maximum DeltaR distance                                *
#*********************************************************************
 0   = drjj    ! min distance between jets 
 0   = drbb    ! min distance between b's 
 0   = draa    ! min distance between gammas 
 0   = drbj    ! min distance between b and jet 
 0   = draj    ! min distance between gamma and jet 
 0   = drjl    ! min distance between jet and lepton 
 0   = drab    ! min distance between gamma and b 
 0   = drbl    ! min distance between b and lepton 
 0   = dral    ! min distance between gamma and lepton 
 1d2 = drjjmax ! max distance between jets
 1d2 = drbbmax ! max distance between b's
 1d9 = drllmax ! max distance between leptons
 1d2 = draamax ! max distance between gammas
 1d2 = drbjmax ! max distance between b and jet
 1d2 = drajmax ! max distance between gamma and jet
 1d2 = drjlmax ! max distance between jet and lepton
 1d2 = drabmax ! max distance between gamma and b
 1d2 = drblmax ! max distance between b and lepton
 1d2 = dralmax ! maxdistance between gamma and lepton
#*********************************************************************
# Minimum and maximum invariant mass for pairs                       *
#*********************************************************************
 0   = mmjj    ! min invariant mass of a jet pair 
 0   = mmbb    ! min invariant mass of a b pair 
 0   = mmaa    ! min invariant mass of gamma gamma pair
 1d5 = mmjjmax ! max invariant mass of a jet pair
 1d5 = mmbbmax ! max invariant mass of a b pair
 1d5 = mmaamax ! max invariant mass of gamma gamma pair
 1d5 = mmllmax ! max invariant mass of l+l- (same flavour) lepton pair
#*********************************************************************
# Minimum and maximum invariant mass for all letpons                 *
#*********************************************************************
 0   = mmnl    ! min invariant mass for all letpons (l+- and vl) 
 1d9 = mmnlmax ! max invariant mass for all letpons (l+- and vl) 
#*********************************************************************
# Inclusive cuts                                                     *
#*********************************************************************
 0  = xptj ! minimum pt for at least one jet  
 0  = xptb ! minimum pt for at least one b 
 0  = xpta ! minimum pt for at least one photon 
 0  = xptl ! minimum pt for at least one charged lepton 
#*********************************************************************
# Control the pt's of the jets sorted by pt                          *
#*********************************************************************
 0   = ptj1min ! minimum pt for the leading jet in pt
 0   = ptj2min ! minimum pt for the second jet in pt
 0   = ptj3min ! minimum pt for the third jet in pt
 0   = ptj4min ! minimum pt for the fourth jet in pt
 1d5 = ptj1max ! maximum pt for the leading jet in pt 
 1d5 = ptj2max ! maximum pt for the second jet in pt
 1d5 = ptj3max ! maximum pt for the third jet in pt
 1d5 = ptj4max ! maximum pt for the fourth jet in pt
 0   = cutuse  ! reject event if fails any (0) / all (1) jet pt cuts
#*********************************************************************
# Control the Ht(k)=Sum of k leading jets                            *
#*********************************************************************
 0   = htjmin ! minimum jet HT=Sum(jet pt)
 1d5 = htjmax ! maximum jet HT=Sum(jet pt)
 0   = ht2min ! minimum Ht for the two leading jets
 0   = ht3min ! minimum Ht for the three leading jets
 0   = ht4min ! minimum Ht for the four leading jets
 1d5 = ht2max ! maximum Ht for the two leading jets
 1d5 = ht3max ! maximum Ht for the three leading jets
 1d5 = ht4max ! maximum Ht for the four leading jets
#*********************************************************************
# WBF cuts                                                           *
#*********************************************************************
 0   = xetamin ! minimum rapidity for two jets in the WBF case  
 0   = deltaeta ! minimum rapidity for two jets in the WBF case 
#*********************************************************************
# maximal pdg code for quark to be considered as a jet               *
# otherwise b cuts are applied                                       *
#*********************************************************************
 4 = maxjetflavor
#*********************************************************************
# Jet measure cuts                                                   *
#*********************************************************************
 0   = xqcut   ! minimum kt jet measure between partons
#*********************************************************************
</MGRunCard>
<MGGenerationInfo>
#  Number of Events        :        1000
#  Integrated weight (pb)  :  .23067E+12
#  Truncated wgt (pb)      :  .83029E+08
#  Unit wgt                :  .23067E+09
</MGGenerationInfo>
</header>
<init>
       11     -623  0.40000000000E+01  0.17130000000E+03 0 0     0     0 3  1
  0.23125838924E+12  0.19638967299E+10  0.23067000000E+09   0
</init>
<event>
 5   0  0.2306700E+09  0.9118800E+02  0.7818608E-02  0.1180000E+00
       11   -1    0    0    0    0  0.00000000000E+00  0.00000000000E+00  0.39999999673E+01  0.40000000000E+01  0.51109989000E-03 0. -1.
     -623   -1    0    0    0    0  0.00000000000E+00  0.00000000000E+00  0.12525980253E-10  0.17130000000E+03  0.17130000000E+03 0. -1.
       11    1    1    2    0    0 -0.22014737770E-02  0.79340170579E-02  0.40912513518E+00  0.40920829974E+00  0.51109989000E-03 0. -1.
     -623    1    1    2    0    0 -0.28714483122E-02 -0.59899966711E-02  0.11870070854E-03  0.17130000013E+03  0.17130000000E+03 0. -1.
      622    1    1    2    0    0  0.50729220892E-02 -0.19440203868E-02  0.35907561315E+01  0.35907915714E+01  0.15000000000E-01 0. -1.
</event>
<event>
 5   0  0.2306700E+09  0.9118800E+02  0.7818608E-02  0.1180000E+00
       11   -1    0    0    0    0  0.00000000000E+00  0.00000000000E+00  0.39999999673E+01  0.40000000000E+01  0.51109989000E-03 0.  1.
     -623   -1    0    0    0    0  0.00000000000E+00  0.00000000000E+00  0.12525980253E-10  0.17130000000E+03  0.17130000000E+03 0.  1.
       11    1    1    2    0    0  0.10468704281E-02  0.21442759475E-03  0.88312724972E-01  0.88320668756E-01  0.51109989000E-03 0.  1.
     -623    1    1    2    0    0  0.17550560407E-03 -0.63850044043E-04  0.36865273657E-04  0.17130000000E+03  0.17130000000E+03 0.  1.
      622    1    1    2    0    0 -0.12223760322E-02 -0.15057755070E-03  0.39116503771E+01  0.39116793311E+01  0.15000000000E-01 0.  1.
</event>
<event>
 5   0  0.2306700E+09  0.9118800E+02  0.7818608E-02  0.1180000E+00
       11   -1    0    0    0    0  0.00000000000E+00  0.00000000000E+00  0.39999999673E+01  0.40000000000E+01  0.51109989000E-03 0.  1.
     -623   -1    0    0    0    0  0.00000000000E+00  0.00000000000E+00  0.12525980253E-10  0.17130000000E+03  0.17130000000E+03 0.  1.
       11    1    1    2    0    0  0.20041947508E-02 -0.72073978275E-03  0.11523310571E+00  0.11525392026E+00  0.51109989000E-03 0.  1.
     -623    1    1    2    0    0 -0.35082872743E-02  0.18865953710E-02  0.50253892777E-04  0.17130000005E+03  0.17130000000E+03 0.  1.
      622    1    1    2    0    0  0.15040925222E-02 -0.11658555875E-02  0.38847166062E+01  0.38847460319E+01  0.15000000000E-01 0.  1.
</event>
<event>
 5   0  0.2306700E+09  0.9118800E+02  0.7818608E-02  0.1180000E+00
       11   -1    0    0    0    0  0.00000000000E+00  0.00000000000E+00  0.39999999673E+01  0.40000000000E+01  0.51109989000E-03 0. -1.
     -623   -1    0    0    0    0  0.00000000000E+00  0.00000000000E+00  0.12525980253E-10  0.17130000000E+03  0.17130000000E+03 0.  1.
       11    1    1    2    0    0  0.11349204725E-03  0.22502498342E-02  0.18650927872E+00  0.18652358772E+00  0.51109989000E-03 0. -1.
     -623    1    1    2    0    0 -0.92968428687E-03 -0.13497744392E-02  0.43978623698E-04  0.17130000001E+03  0.17130000000E+03 0.  1.
      622    1    1    2    0    0  0.81619223961E-03 -0.90047539491E-03  0.38134467100E+01  0.38134764044E+01  0.15000000000E-01 0. -1.
</event>
<event>
 5   0  0.2306700E+09  0.9118800E+02  0.7818608E-02  0.1180000E+00
       11   -1    0    0    0    0  0.00000000000E+00  0.00000000000E+00  0.39999999673E+01  0.40000000000E+01  0.51109989000E-03 0. -1.
     -623   -1    0    0    0    0  0.00000000000E+00  0.00000000000E+00  0.12525980253E-10  0.17130000000E+03  0.17130000000E+03 0. -1.
       11    1    1    2    0    0  0.13620598763E-03  0.23086478743E-03  0.73019559582E-02  0.73247276082E-02  0.51109989000E-03 0. -1.
     -623    1    1    2    0    0 -0.86152517106E-04 -0.27548961693E-04  0.50921227670E-04  0.17130000000E+03  0.17130000000E+03 0. -1.
      622    1    1    2    0    0 -0.50053470552E-04 -0.20331582575E-03  0.39926470891E+01  0.39926752713E+01  0.15000000000E-01 0. -1.
</event>
<event>
 5   0  0.2306700E+09  0.9118800E+02  0.7818608E-02  0.1180000E+00
       11   -1    0    0    0    0  0.00000000000E+00  0.00000000000E+00  0.39999999673E+01  0.40000000000E+01  0.51109989000E-03 0. -1.
     -623   -1    0    0    0    0  0.00000000000E+00  0.00000000000E+00  0.12525980253E-10  0.17130000000E+03  0.17130000000E+03 0.  1.
       11    1    1    2    0    0  0.30029191132E-03  0.86217956435E-04  0.64944379243E+00  0.64944406869E+00  0.51109989000E-03 0. -1.
     -623    1    1    2    0    0  0.21811874146E-03 -0.15456401354E-02  0.34185373900E-04  0.17130000001E+03  0.17130000000E+03 0.  1.
      622    1    1    2    0    0 -0.51841065278E-03  0.14594221790E-02  0.33505219896E+01  0.33505559242E+01  0.15000000000E-01 0. -1.
</event>
<event>
 5   0  0.2306700E+09  0.9118800E+02  0.7818608E-02  0.1180000E+00
       11   -1    0    0    0    0  0.00000000000E+00  0.00000000000E+00  0.39999999673E+01  0.40000000000E+01  0.51109989000E-03 0. -1.
     -623   -1    0    0    0    0  0.00000000000E+00  0.00000000000E+00  0.12525980253E-10  0.17130000000E+03  0.17130000000E+03 0.  1.
       11    1    1    2    0    0  0.30348191064E-02  0.39086112849E-02  0.97213060969E+00  0.97214333866E+00  0.51109989000E-03 0. -1.
     -623    1    1    2    0    0  0.11751526871E-02 -0.83202506527E-03  0.54347515619E-04  0.17130000001E+03  0.17130000000E+03 0.  1.
      622    1    1    2    0    0 -0.42099717923E-02 -0.30765862205E-02  0.30278150059E+01  0.30278566511E+01  0.15000000000E-01 0. -1.
</event>
<event>
 5   0  0.2306700E+09  0.9118800E+02  0.7818608E-02  0.1180000E+00
       11   -1    0    0    0    0  0.00000000000E+00  0.00000000000E+00  0.39999999673E+01  0.40000000000E+01  0.51109989000E-03 0.  1.
     -623   -1    0    0    0    0  0.00000000000E+00  0.00000000000E+00  0.12525980253E-10  0.17130000000E+03  0.17130000000E+03 0.  1.
       11    1    1    2    0    0  0.51405143023E-02 -0.16205899759E-01  0.77733154180E+00  0.77751761599E+00  0.51109989000E-03 0.  1.
     -623    1    1    2    0    0  0.35659756367E-02  0.10241101358E-01  0.23857835068E-03  0.17130000034E+03  0.17130000000E+03 0.  1.
      622    1    1    2    0    0 -0.87064899390E-02  0.59647984018E-02  0.32224298473E+01  0.32224820407E+01  0.15000000000E-01 0.  1.
</event>
<event>
 5   0  0.2306700E+09  0.9118800E+02  0.7818608E-02  0.1180000E+00
       11   -1    0    0    0    0  0.00000000000E+00  0.00000000000E+00  0.39999999673E+01  0.40000000000E+01  0.51109989000E-03 0. -1.
     -623   -1    0    0    0    0  0.00000000000E+00  0.00000000000E+00  0.12525980253E-10  0.17130000000E+03  0.17130000000E+03 0. -1.
       11    1    1    2    0    0 -0.94071752090E-02 -0.17505775346E-02  0.11569562435E+01  0.11569959249E+01  0.51109989000E-03 0. -1.
     -623    1    1    2    0    0  0.53390626404E-02 -0.12346024199E-02  0.83785325184E-04  0.17130000009E+03  0.17130000000E+03 0. -1.
      622    1    1    2    0    0  0.40681125686E-02  0.29851799545E-02  0.28429599385E+01  0.28430039875E+01  0.15000000000E-01 0. -1.
</event>
<event>
 5   0  0.2306700E+09  0.9118800E+02  0.7818608E-02  0.1180000E+00
       11   -1    0    0    0    0  0.00000000000E+00  0.00000000000E+00  0.39999999673E+01  0.40000000000E+01  0.51109989000E-03 0. -1.
     -623   -1    0    0    0    0  0.00000000000E+00  0.00000000000E+00  0.12525980253E-10  0.17130000000E+03  0.17130000000E+03 0. -1.
       11    1    1    2    0    0 -0.12956016128E-02  0.77121361273E-03  0.37408870497E-01  0.37442731845E-01  0.51109989000E-03 0. -1.
     -623    1    1    2    0    0 -0.37025031072E-02 -0.33855289236E-02  0.66307619647E-04  0.17130000007E+03  0.17130000000E+03 0. -1.
      622    1    1    2    0    0  0.49981047200E-02  0.26143153109E-02  0.39625247892E+01  0.39625571947E+01  0.15000000000E-01 0. -1.
</event>
<event>
 5   0  0.2306700E+09  0.9118800E+02  0.7818608E-02  0.1180000E+00
       11   -1    0    0    0    0  0.00000000000E+00  0.00000000000E+00  0.39999999673E+01  0.40000000000E+01  0.51109989000E-03 0. -1.
     -623   -1    0    0    0    0  0.00000000000E+00  0.00000000000E+00  0.12525980253E-10  0.17130000000E+03  0.17130000000E+03 0. -1.
       11    1    1    2    0    0  0.31014009514E-02 -0.42879543273E-02  0.17285609704E+00  0.17293784070E+00  0.51109989000E-03 0. -1.
     -623    1    1    2    0    0  0.11569869150E-04 -0.17427494277E-02  0.11713367678E-03  0.17130000001E+03  0.17130000000E+03 0. -1.
      622    1    1    2    0    0 -0.31129708206E-02  0.60307037561E-02  0.38270267392E+01  0.38270621530E+01  0.15000000000E-01 0. -1.
</event>
<event>
 5   0  0.2306700E+09  0.9118800E+02  0.7818608E-02  0.1180000E+00
       11   -1    0    0    0    0  0.00000000000E+00  0.00000000000E+00  0.39999999673E+01  0.40000000000E+01  0.51109989000E-03 0.  1.
     -623   -1    0    0    0    0  0.00000000000E+00  0.00000000000E+00  0.12525980253E-10  0.17130000000E+03  0.17130000000E+03 0.  1.
       11    1    1    2    0    0  0.11803258557E-02  0.24866827159E-03  0.20237722639E-01  0.20280079987E-01  0.51109989000E-03 0.  1.
     -623    1    1    2    0    0 -0.27230155211E-05  0.10778799922E-03  0.70783369476E-04  0.17130000000E+03  0.17130000000E+03 0.  1.
      622    1    1    2    0    0 -0.11776028402E-02 -0.35645627081E-03  0.39796914614E+01  0.39797199200E+01  0.15000000000E-01 0.  1.
</event>
<event>
 5   0  0.2306700E+09  0.9118800E+02  0.7818608E-02  0.1180000E+00
       11   -1    0    0    0    0  0.00000000000E+00  0.00000000000E+00  0.39999999673E+01  0.40000000000E+01  0.51109989000E-03 0.  1.
     -623   -1    0    0    0    0  0.00000000000E+00  0.00000000000E+00  0.12525980253E-10  0.17130000000E+03  0.17130000000E+03 0. -1.
       11    1    1    2    0    0  0.71395961905E-04  0.11008622280E-02  0.39217283522E-01  0.39236125484E-01  0.51109989000E-03 0.  1.
     -623    1    1    2    0    0  0.60766496390E-03  0.36068776440E-04  0.47435513145E-04  0.17130000000E+03  0.17130000000E+03 0. -1.
      622    1    1    2    0    0 -0.67906092581E-03 -0.11369310045E-02  0.39607352483E+01  0.39607638734E+01  0.15000000000E-01 0.  1.
</event>
<event>
 5   0  0.2306700E+09  0.9118800E+02  0.7818608E-02  0.1180000E+00
       11   -1    0    0    0    0  0.00000000000E+00  0.00000000000E+00  0.39999999673E+01  0.40000000000E+01  0.51109989000E-03 0.  1.
     -623   -1    0    0    0    0  0.00000000000E+00  0.00000000000E+00  0.12525980253E-10  0.17130000000E+03  0.17130000000E+03 0.  1.
       11    1    1    2    0    0  0.53053804924E-03 -0.82979220199E-03  0.98346909391E-02  0.98970902130E-02  0.51109989000E-03 0.  1.
     -623    1    1    2    0    0 -0.30136966352E-03 -0.15337452024E-04  0.90657868399E-04  0.17130000000E+03  0.17130000000E+03 0.  1.
      622    1    1    2    0    0 -0.22916838559E-03  0.84512965402E-03  0.39900746204E+01  0.39901029113E+01  0.15000000000E-01 0.  1.
</event>
<event>
 5   0  0.2306700E+09  0.9118800E+02  0.7818608E-02  0.1180000E+00
       11   -1    0    0    0    0  0.00000000000E+00  0.00000000000E+00  0.39999999673E+01  0.40000000000E+01  0.51109989000E-03 0.  1.
     -623   -1    0    0    0    0  0.00000000000E+00  0.00000000000E+00  0.12525980253E-10  0.17130000000E+03  0.17130000000E+03 0.  1.
       11    1    1    2    0    0  0.10517341295E-01  0.65426387061E-02  0.11388513093E+01  0.11389187796E+01  0.51109989000E-03 0.  1.
     -623    1    1    2    0    0 -0.10597492260E-01  0.21928094970E-02  0.12043747688E-03  0.17130000034E+03  0.17130000000E+03 0.  1.
      622    1    1    2    0    0  0.80150957770E-04 -0.87354482017E-02  0.28610282180E+01  0.28610808759E+01  0.15000000000E-01 0.  1.
</event>
<event>
 5   0  0.2306700E+09  0.9118800E+02  0.7818608E-02  0.1180000E+00
       11   -1    0    0    0    0  0.00000000000E+00  0.00000000000E+00  0.39999999673E+01  0.40000000000E+01  0.51109989000E-03 0.  1.
     -623   -1    0    0    0    0  0.00000000000E+00  0.00000000000E+00  0.12525980253E-10  0.17130000000E+03  0.17130000000E+03 0.  1.
       11    1    1    2    0    0 -0.34623620089E-02 -0.27923508355E-02  0.16247163215E+00  0.16253331242E+00  0.51109989000E-03 0.  1.
     -623    1    1    2    0    0  0.62625367735E-03 -0.47257801785E-03  0.93402737918E-04  0.17130000000E+03  0.17130000000E+03 0.  1.
      622    1    1    2    0    0  0.28361083316E-02  0.32649288533E-02  0.38374349325E+01  0.38374666858E+01  0.15000000000E-01 0.  1.
</event>
<event>
 5   0  0.2306700E+09  0.9118800E+02  0.7818608E-02  0.1180000E+00
       11   -1    0    0    0    0  0.00000000000E+00  0.00000000000E+00  0.39999999673E+01  0.40000000000E+01  0.51109989000E-03 0. -1.
     -623   -1    0    0    0    0  0.00000000000E+00  0.00000000000E+00  0.12525980253E-10  0.17130000000E+03  0.17130000000E+03 0. -1.
       11    1    1    2    0    0 -0.33927122787E-02  0.21458723243E-02  0.79842031747E-01  0.79944521519E-01  0.51109989000E-03 0. -1.
     -623    1    1    2    0    0 -0.32162142795E-03 -0.17633802890E-02  0.13294361810E-03  0.17130000001E+03  0.17130000000E+03 0. -1.
      622    1    1    2    0    0  0.37143337066E-02 -0.38249203531E-03  0.39200249920E+01  0.39200554691E+01  0.15000000000E-01 0. -1.
</event>
<event>
 5   0  0.2306700E+09  0.9118800E+02  0.7818608E-02  0.1180000E+00
       11   -1    0    0    0    0  0.00000000000E+00  0.00000000000E+00  0.39999999673E+01  0.40000000000E+01  0.51109989000E-03 0.  1.
     -623   -1    0    0    0    0  0.00000000000E+00  0.00000000000E+00  0.12525980253E-10  0.17130000000E+03  0.17130000000E+03 0.  1.
       11    1    1    2    0    0  0.47278227687E-03  0.65405591087E-03  0.22003325167E-02  0.23987490244E-02  0.51109989000E-03 0.  1.
     -623    1    1    2    0    0 -0.46485997242E-03  0.43169949386E-03  0.22667462293E-03  0.17130000000E+03  0.17130000000E+03 0.  1.
      622    1    1    2    0    0 -0.79223044479E-05 -0.10857554047E-02  0.39975729602E+01  0.39976012497E+01  0.15000000000E-01 0.  1.
</event>
<event>
 5   0  0.2306700E+09  0.9118800E+02  0.7818608E-02  0.1180000E+00
       11   -1    0    0    0    0  0.00000000000E+00  0.00000000000E+00  0.39999999673E+01  0.40000000000E+01  0.51109989000E-03 0.  1.
     -623   -1    0    0    0    0  0.00000000000E+00  0.00000000000E+00  0.12525980253E-10  0.17130000000E+03  0.17130000000E+03 0. -1.
       11    1    1    2    0    0  0.33613169999E-03  0.75042737072E-03  0.65177186360E+00  0.65177258268E+00  0.51109989000E-03 0.  1.
     -623    1    1    2    0    0 -0.12739435486E-03 -0.99329870548E-03  0.34304719947E-04  0.17130000000E+03  0.17130000000E+03 0. -1.
      622    1    1    2    0    0 -0.20873734539E-03  0.24287133281E-03  0.33481937912E+01  0.33482274065E+01  0.15000000000E-01 0.  1.
</event>
<event>
 5   0  0.2306700E+09  0.9118800E+02  0.7818608E-02  0.1180000E+00
       11   -1    0    0    0    0  0.00000000000E+00  0.00000000000E+00  0.39999999673E+01  0.40000000000E+01  0.51109989000E-03 0. -1.
     -623   -1    0    0    0    0  0.00000000000E+00  0.00000000000E+00  0.12525980253E-10  0.17130000000E+03  0.17130000000E+03 0. -1.
       11    1    1    2    0    0 -0.32029936024E-02  0.31055825250E-02  0.61132578628E+00  0.61134227893E+00  0.51109989000E-03 0. -1.
     -623    1    1    2    0    0 -0.32766400750E-04  0.26411100114E-03  0.52879700930E-04  0.17130000000E+03  0.17130000000E+03 0. -1.
      622    1    1    2    0    0  0.32357600032E-02 -0.33696935261E-02  0.33886213014E+01  0.33886577209E+01  0.15000000000E-01 0. -1.
</event>
<event>
 5   0  0.2306700E+09  0.9118800E+02  0.7818608E-02  0.1180000E+00
       11   -1    0    0    0    0  0.00000000000E+00  0.00000000000E+00  0.39999999673E+01  0.40000000000E+01  0.51109989000E-03 0.  1.
     -623   -1    0    0    0    0  0.00000000000E+00  0.00000000000E+00  0.12525980253E-10  0.17130000000E+03  0.17130000000E+03 0. -1.
       11    1    1    2    0    0 -0.89873093217E-03  0.64988102192E-03  0.19132029792E-01  0.19170963713E-01  0.51109989000E-03 0.  1.
     -623    1    1    2    0    0  0.15589035045E-02 -0.90361223510E-03  0.67234143615E-04  0.17130000001E+03  0.17130000000E+03 0. -1.
      622    1    1    2    0    0 -0.66017257382E-03  0.25373121405E-03  0.39808007072E+01  0.39808290306E+01  0.15000000000E-01 0.  1.
</event>
<event>
 5   0  0.2306700E+09  0.9118800E+02  0.7818608E-02  0.1180000E+00
       11   -1    0    0    0    0  0.00000000000E+00  0.00000000000E+00  0.39999999673E+01  0.40000000000E+01  0.51109989000E-03 0. -1.
     -623   -1    0    0    0    0  0.00000000000E+00  0.00000000000E+00  0.12525980253E-10  0.17130000000E+03  0.17130000000E+03 0.  1.
       11    1    1    2    0    0  0.30988294037E-02 -0.34491755865E-02  0.23765209948E-01  0.24218711391E-01  0.51109989000E-03 0. -1.
     -623    1    1    2    0    0 -0.43937802059E-02  0.20655700379E-02  0.48228635589E-03  0.17130000007E+03  0.17130000000E+03 0.  1.
      622    1    1    2    0    0  0.12949508022E-02  0.13836055485E-02  0.39757524711E+01  0.39757812191E+01  0.15000000000E-01 0. -1.
</event>
<event>
 5   0  0.2306700E+09  0.9118800E+02  0.7818608E-02  0.1180000E+00
       11   -1    0    0    0    0  0.00000000000E+00  0.00000000000E+00  0.39999999673E+01  0.40000000000E+01  0.51109989000E-03 0.  1.
     -623   -1    0    0    0    0  0.00000000000E+00  0.00000000000E+00  0.12525980253E-10  0.17130000000E+03  0.17130000000E+03 0.  1.
       11    1    1    2    0    0 -0.90186829405E-03  0.26847091612E-02  0.28387032418E+00  0.28388491189E+00  0.51109989000E-03 0.  1.
     -623    1    1    2    0    0  0.71825191856E-04 -0.60031584085E-04  0.45848391702E-04  0.17130000000E+03  0.17130000000E+03 0.  1.
      622    1    1    2    0    0  0.83004310203E-03 -0.26246775770E-02  0.37160838040E+01  0.37161150972E+01  0.15000000000E-01 0.  1.
</event>
<event>
 5   0  0.2306700E+09  0.9118800E+02  0.7818608E-02  0.1180000E+00
       11   -1    0    0    0    0  0.00000000000E+00  0.00000000000E+00  0.39999999673E+01  0.40000000000E+01  0.51109989000E-03 0. -1.
     -623   -1    0    0    0    0  0.00000000000E+00  0.00000000000E+00  0.12525980253E-10  0.17130000000E+03  0.17130000000E+03 0. -1.
       11    1    1    2    0    0  0.37206607778E-02  0.10940076771E-02  0.23128918150E-01  0.23457370821E-01  0.51109989000E-03 0. -1.
     -623    1    1    2    0    0 -0.41081980452E-03 -0.99968281294E-04  0.35821364839E-03  0.17130000000E+03  0.17130000000E+03 0. -1.
      622    1    1    2    0    0 -0.33098409732E-02 -0.99403939580E-03  0.39765128356E+01  0.39765426283E+01  0.15000000000E-01 0. -1.
</event>
<event>
 5   0  0.2306700E+09  0.9118800E+02  0.7818608E-02  0.1180000E+00
       11   -1    0    0    0    0  0.00000000000E+00  0.00000000000E+00  0.39999999673E+01  0.40000000000E+01  0.51109989000E-03 0. -1.
     -623   -1    0    0    0    0  0.00000000000E+00  0.00000000000E+00  0.12525980253E-10  0.17130000000E+03  0.17130000000E+03 0. -1.
       11    1    1    2    0    0 -0.17664885479E-02 -0.74152039732E-04  0.65626132432E+00  0.65626390500E+00  0.51109989000E-03 0. -1.
     -623    1    1    2    0    0 -0.14887243931E-03  0.18020894396E-03  0.36743633373E-04  0.17130000000E+03  0.17130000000E+03 0. -1.
      622    1    1    2    0    0  0.19153609872E-02 -0.10605690422E-03  0.33437018994E+01  0.33437360948E+01  0.15000000000E-01 0. -1.
</event>
<event>
 5   0  0.2306700E+09  0.9118800E+02  0.7818608E-02  0.1180000E+00
       11   -1    0    0    0    0  0.00000000000E+00  0.00000000000E+00  0.39999999673E+01  0.40000000000E+01  0.51109989000E-03 0.  1.
     -623   -1    0    0    0    0  0.00000000000E+00  0.00000000000E+00  0.12525980253E-10  0.17130000000E+03  0.17130000000E+03 0. -1.
       11    1    1    2    0    0 -0.12547426191E-03 -0.46308674253E-04  0.10204846793E-01  0.10218512995E-01  0.51109989000E-03 0.  1.
     -623    1    1    2    0    0 -0.96322727438E-03 -0.11539686474E-02  0.42166379429E-04  0.17130000001E+03  0.17130000000E+03 0. -1.
      622    1    1    2    0    0  0.10887015363E-02  0.12002773217E-02  0.39897529542E+01  0.39897814804E+01  0.15000000000E-01 0.  1.
</event>
<event>
 5   0  0.2306700E+09  0.9118800E+02  0.7818608E-02  0.1180000E+00
       11   -1    0    0    0    0  0.00000000000E+00  0.00000000000E+00  0.39999999673E+01  0.40000000000E+01  0.51109989000E-03 0.  1.
     -623   -1    0    0    0    0  0.00000000000E+00  0.00000000000E+00  0.12525980253E-10  0.17130000000E+03  0.17130000000E+03 0. -1.
       11    1    1    2    0    0 -0.16239601851E-02 -0.24144791634E-02  0.42220697787E-01  0.42323935321E-01  0.51109989000E-03 0.  1.
     -623    1    1    2    0    0  0.66871462575E-03 -0.45260001501E-03  0.13278651922E-03  0.17130000000E+03  0.17130000000E+03 0. -1.
      622    1    1    2    0    0  0.95524555913E-03  0.28670791786E-02  0.39576464845E+01  0.39576760642E+01  0.15000000000E-01 0.  1.
</event>
<event>
 5   0  0.2306700E+09  0.9118800E+02  0.7818608E-02  0.1180000E+00
       11   -1    0    0    0    0  0.00000000000E+00  0.00000000000E+00  0.39999999673E+01  0.40000000000E+01  0.51109989000E-03 0.  1.
     -623   -1    0    0    0    0  0.00000000000E+00  0.00000000000E+00  0.12525980253E-10  0.17130000000E+03  0.17130000000E+03 0. -1.
       11    1    1    2    0    0 -0.53866622132E-03 -0.88450013178E-03  0.34594108691E-01  0.34613380086E-01  0.51109989000E-03 0.  1.
     -623    1    1    2    0    0 -0.71569934680E-05  0.60733012982E-04  0.47732504742E-04  0.17130000000E+03  0.17130000000E+03 0. -1.
      622    1    1    2    0    0  0.54582321479E-03  0.82376711874E-03  0.39653581298E+01  0.39653866235E+01  0.15000000000E-01 0.  1.
</event>
<event>
 5   0  0.2306700E+09  0.9118800E+02  0.7818608E-02  0.1180000E+00
       11   -1    0    0    0    0  0.00000000000E+00  0.00000000000E+00  0.39999999673E+01  0.40000000000E+01  0.51109989000E-03 0. -1.
     -623   -1    0    0    0    0  0.00000000000E+00  0.00000000000E+00  0.12525980253E-10  0.17130000000E+03  0.17130000000E+03 0. -1.
       11    1    1    2    0    0 -0.98120801202E-02  0.12149578828E-02  0.20735501280E+00  0.20759122235E+00  0.51109989000E-03 0. -1.
     -623    1    1    2    0    0  0.50567760996E-03 -0.14001395933E-03  0.27741377584E-03  0.17130000000E+03  0.17130000000E+03 0. -1.
      622    1    1    2    0    0  0.93064025102E-02 -0.10749439234E-02  0.37923675415E+01  0.37924087773E+01  0.15000000000E-01 0. -1.
</event>
<event>
 5   0  0.2306700E+09  0.9118800E+02  0.7818608E-02  0.1180000E+00
       11   -1    0    0    0    0  0.00000000000E+00  0.00000000000E+00  0.39999999673E+01  0.40000000000E+01  0.51109989000E-03 0.  1.
     -623   -1    0    0    0    0  0.00000000000E+00  0.00000000000E+00  0.12525980253E-10  0.17130000000E+03  0.17130000000E+03 0.  1.
       11    1    1    2    0    0  0.24335358520E-02 -0.34894678651E-02  0.27437171317E-01  0.27769733086E-01  0.51109989000E-03 0.  1.
     -623    1    1    2    0    0  0.58280589065E-03  0.11151474216E-03  0.36343381661E-03  0.17130000000E+03  0.17130000000E+03 0.  1.
      622    1    1    2    0    0 -0.30163417427E-02  0.33779531230E-02  0.39721993626E+01  0.39722302659E+01  0.15000000000E-01 0.  1.
</event>
<event>
 5   0  0.2306700E+09  0.9118800E+02  0.7818608E-02  0.1180000E+00
       11   -1    0    0    0    0  0.00000000000E+00  0.00000000000E+00  0.39999999673E+01  0.40000000000E+01  0.51109989000E-03 0. -1.
     -623   -1    0    0    0    0  0.00000000000E+00  0.00000000000E+00  0.12525980253E-10  0.17130000000E+03  0.17130000000E+03 0. -1.
       11    1    1    2    0    0  0.20205374144E-01 -0.28577905409E-01  0.32726684906E+00  0.32913341601E+00  0.51109989000E-03 0. -1.
     -623    1    1    2    0    0  0.30832919284E-02  0.29592539656E-01  0.19737918652E-02  0.17130000260E+03  0.17130000000E+03 0. -1.
      622    1    1    2    0    0 -0.23288666072E-01 -0.10146342471E-02  0.36707593264E+01  0.36708639888E+01  0.15000000000E-01 0. -1.
</event>
<event>
 5   0  0.2306700E+09  0.9118800E+02  0.7818608E-02  0.1180000E+00
       11   -1    0    0    0    0  0.00000000000E+00  0.00000000000E+00  0.39999999673E+01  0.40000000000E+01  0.51109989000E-03 0. -1.
     -623   -1    0    0    0    0  0.00000000000E+00  0.00000000000E+00  0.12525980253E-10  0.17130000000E+03  0.17130000000E+03 0. -1.
       11    1    1    2    0    0 -0.36880492421E-02 -0.18585753500E-04  0.69787223743E-01  0.69886478453E-01  0.51109989000E-03 0. -1.
     -623    1    1    2    0    0 -0.40834828834E-04 -0.10035314673E-02  0.12975220188E-03  0.17130000000E+03  0.17130000000E+03 0. -1.
      622    1    1    2    0    0  0.37288840709E-02  0.10221172208E-02  0.39300829914E+01  0.39301135186E+01  0.15000000000E-01 0. -1.
</event>
<event>
 5   0  0.2306700E+09  0.9118800E+02  0.7818608E-02  0.1180000E+00
       11   -1    0    0    0    0  0.00000000000E+00  0.00000000000E+00  0.39999999673E+01  0.40000000000E+01  0.51109989000E-03 0.  1.
     -623   -1    0    0    0    0  0.00000000000E+00  0.00000000000E+00  0.12525980253E-10  0.17130000000E+03  0.17130000000E+03 0. -1.
       11    1    1    2    0    0 -0.15678760753E-02 -0.39083177797E-03  0.59229323006E-01  0.59253564539E-01  0.51109989000E-03 0.  1.
     -623    1    1    2    0    0  0.93380862809E-04 -0.23639641230E-03  0.53082855432E-04  0.17130000000E+03  0.17130000000E+03 0. -1.
      622    1    1    2    0    0  0.14744952125E-02  0.62722819026E-03  0.39407175615E+01  0.39407464353E+01  0.15000000000E-01 0.  1.
</event>
<event>
 5   0  0.2306700E+09  0.9118800E+02  0.7818608E-02  0.1180000E+00
       11   -1    0    0    0    0  0.00000000000E+00  0.00000000000E+00  0.39999999673E+01  0.40000000000E+01  0.51109989000E-03 0. -1.
     -623   -1    0    0    0    0  0.00000000000E+00  0.00000000000E+00  0.12525980253E-10  0.17130000000E+03  0.17130000000E+03 0. -1.
       11    1    1    2    0    0 -0.16477455827E-02 -0.61910563611E-03  0.15819910979E+00  0.15820972763E+00  0.51109989000E-03 0. -1.
     -623    1    1    2    0    0  0.35336415430E-02  0.15619401666E-03  0.40395839757E-04  0.17130000004E+03  0.17130000000E+03 0. -1.
      622    1    1    2    0    0 -0.18858959568E-02  0.46291161961E-03  0.38417604577E+01  0.38417902318E+01  0.15000000000E-01 0. -1.
</event>
<event>
 5   0  0.2306700E+09  0.9118800E+02  0.7818608E-02  0.1180000E+00
       11   -1    0    0    0    0  0.00000000000E+00  0.00000000000E+00  0.39999999673E+01  0.40000000000E+01  0.51109989000E-03 0. -1.
     -623   -1    0    0    0    0  0.00000000000E+00  0.00000000000E+00  0.12525980253E-10  0.17130000000E+03  0.17130000000E+03 0.  1.
       11    1    1    2    0    0  0.31030981101E-02  0.90377157545E-03  0.22437857571E+00  0.22440243422E+00  0.51109989000E-03 0. -1.
     -623    1    1    2    0    0 -0.79977264739E-02 -0.24350052181E-02  0.57309803821E-04  0.17130000020E+03  0.17130000000E+03 0.  1.
      622    1    1    2    0    0  0.48946283606E-02  0.15312336417E-02  0.37755640802E+01  0.37755973601E+01  0.15000000000E-01 0. -1.
</event>
<event>
 5   0  0.2306700E+09  0.9118800E+02  0.7818608E-02  0.1180000E+00
       11   -1    0    0    0    0  0.00000000000E+00  0.00000000000E+00  0.39999999673E+01  0.40000000000E+01  0.51109989000E-03 0. -1.
     -623   -1    0    0    0    0  0.00000000000E+00  0.00000000000E+00  0.12525980253E-10  0.17130000000E+03  0.17130000000E+03 0.  1.
       11    1    1    2    0    0  0.85196732759E-03  0.33371991433E-03  0.13862378905E+00  0.13862775094E+00  0.51109989000E-03 0. -1.
     -623    1    1    2    0    0 -0.12034002352E-03  0.38003341605E-03  0.33199827881E-04  0.17130000000E+03  0.17130000000E+03 0.  1.
      622    1    1    2    0    0 -0.73162730427E-03 -0.71375332974E-03  0.38613429717E+01  0.38613722418E+01  0.15000000000E-01 0. -1.
</event>
<event>
 5   0  0.2306700E+09  0.9118800E+02  0.7818608E-02  0.1180000E+00
       11   -1    0    0    0    0  0.00000000000E+00  0.00000000000E+00  0.39999999673E+01  0.40000000000E+01  0.51109989000E-03 0. -1.
     -623   -1    0    0    0    0  0.00000000000E+00  0.00000000000E+00  0.12525980253E-10  0.17130000000E+03  0.17130000000E+03 0. -1.
       11    1    1    2    0    0 -0.33683316351E-02  0.24903418725E-02  0.30490181453E+00  0.30493101709E+00  0.51109989000E-03 0. -1.
     -623    1    1    2    0    0  0.47970428542E-02  0.50562194730E-03  0.61174737482E-04  0.17130000007E+03  0.17130000000E+03 0. -1.
      622    1    1    2    0    0 -0.14287112191E-02 -0.29959638198E-02  0.36950369781E+01  0.36950689150E+01  0.15000000000E-01 0. -1.
</event>
<event>
 5   0  0.2306700E+09  0.9118800E+02  0.7818608E-02  0.1180000E+00
       11   -1    0    0    0    0  0.00000000000E+00  0.00000000000E+00  0.39999999673E+01  0.40000000000E+01  0.51109989000E-03 0.  1.
     -623   -1    0    0    0    0  0.00000000000E+00  0.00000000000E+00  0.12525980253E-10  0.17130000000E+03  0.17130000000E+03 0. -1.
       11    1    1    2    0    0  0.11230308212E-02  0.78108720637E-02  0.92755735800E+00  0.92759106535E+00  0.51109989000E-03 0.  1.
     -623    1    1    2    0    0  0.48629031354E-02 -0.23832613672E-02  0.81002191014E-04  0.17130000009E+03  0.17130000000E+03 0. -1.
      622    1    1    2    0    0 -0.59859339566E-02 -0.54276106964E-02  0.30723616072E+01  0.30724088490E+01  0.15000000000E-01 0.  1.
</event>
<event>
 5   0  0.2306700E+09  0.9118800E+02  0.7818608E-02  0.1180000E+00
       11   -1    0    0    0    0  0.00000000000E+00  0.00000000000E+00  0.39999999673E+01  0.40000000000E+01  0.51109989000E-03 0.  1.
     -623   -1    0    0    0    0  0.00000000000E+00  0.00000000000E+00  0.12525980253E-10  0.17130000000E+03  0.17130000000E+03 0.  1.
       11    1    1    2    0    0 -0.65200943270E-02 -0.58144158508E-02  0.63212848437E+00  0.63218905482E+00  0.51109989000E-03 0.  1.
     -623    1    1    2    0    0  0.15699697572E-03 -0.27962269244E-03  0.10546767430E-03  0.17130000000E+03  0.17130000000E+03 0.  1.
      622    1    1    2    0    0  0.63630973513E-02  0.60940385432E-02  0.33677660153E+01  0.33678109449E+01  0.15000000000E-01 0.  1.
</event>
<event>
 5   0  0.2306700E+09  0.9118800E+02  0.7818608E-02  0.1180000E+00
       11   -1    0    0    0    0  0.00000000000E+00  0.00000000000E+00  0.39999999673E+01  0.40000000000E+01  0.51109989000E-03 0. -1.
     -623   -1    0    0    0    0  0.00000000000E+00  0.00000000000E+00  0.12525980253E-10  0.17130000000E+03  0.17130000000E+03 0. -1.
       11    1    1    2    0    0 -0.99941645700E-02 -0.44307783778E-02  0.49486168128E+00  0.49498268651E+00  0.51109989000E-03 0. -1.
     -623    1    1    2    0    0  0.16802329678E-01  0.42791887037E-02  0.16056261624E-03  0.17130000088E+03  0.17130000000E+03 0. -1.
      622    1    1    2    0    0 -0.68081651177E-02  0.15158967153E-03  0.35049777258E+01  0.35050164383E+01  0.15000000000E-01 0. -1.
</event>
<event>
 5   0  0.2306700E+09  0.9118800E+02  0.7818608E-02  0.1180000E+00
       11   -1    0    0    0    0  0.00000000000E+00  0.00000000000E+00  0.39999999673E+01  0.40000000000E+01  0.51109989000E-03 0. -1.
     -623   -1    0    0    0    0  0.00000000000E+00  0.00000000000E+00  0.12525980253E-10  0.17130000000E+03  0.17130000000E+03 0. -1.
       11    1    1    2    0    0 -0.33325663802E-02  0.99570464400E-04  0.85851539371E+00  0.85852201973E+00  0.51109989000E-03 0. -1.
     -623    1    1    2    0    0 -0.21777084975E-02 -0.69812988005E-03  0.47309732075E-04  0.17130000002E+03  0.17130000000E+03 0. -1.
      622    1    1    2    0    0  0.55102748777E-02  0.59855941565E-03  0.31414372639E+01  0.31414779650E+01  0.15000000000E-01 0. -1.
</event>
<event>
 5   0  0.2306700E+09  0.9118800E+02  0.7818608E-02  0.1180000E+00
       11   -1    0    0    0    0  0.00000000000E+00  0.00000000000E+00  0.39999999673E+01  0.40000000000E+01  0.51109989000E-03 0.  1.
     -623   -1    0    0    0    0  0.00000000000E+00  0.00000000000E+00  0.12525980253E-10  0.17130000000E+03  0.17130000000E+03 0.  1.
       11    1    1    2    0    0 -0.19353233893E-02 -0.14129851498E-02  0.73591516389E-01  0.73632292569E-01  0.51109989000E-03 0.  1.
     -623    1    1    2    0    0  0.17005965459E-02 -0.88246616958E-03  0.70084819179E-04  0.17130000001E+03  0.17130000000E+03 0.  1.
      622    1    1    2    0    0  0.23472684340E-03  0.22954513194E-02  0.39263383662E+01  0.39263676967E+01  0.15000000000E-01 0.  1.
</event>
<event>
 5   0  0.2306700E+09  0.9118800E+02  0.7818608E-02  0.1180000E+00
       11   -1    0    0    0    0  0.00000000000E+00  0.00000000000E+00  0.39999999673E+01  0.40000000000E+01  0.51109989000E-03 0. -1.
     -623   -1    0    0    0    0  0.00000000000E+00  0.00000000000E+00  0.12525980253E-10  0.17130000000E+03  0.17130000000E+03 0.  1.
       11    1    1    2    0    0  0.80817568407E-03  0.13274981332E-02  0.90960106511E+00  0.90960253643E+00  0.51109989000E-03 0. -1.
     -623    1    1    2    0    0 -0.42447434875E-03  0.27584931857E-02  0.40589729696E-04  0.17130000002E+03  0.17130000000E+03 0.  1.
      622    1    1    2    0    0 -0.38370133532E-03 -0.40859913189E-02  0.30903583125E+01  0.30903974408E+01  0.15000000000E-01 0. -1.
</event>
<event>
 5   0  0.2306700E+09  0.9118800E+02  0.7818608E-02  0.1180000E+00
       11   -1    0    0    0    0  0.00000000000E+00  0.00000000000E+00  0.39999999673E+01  0.40000000000E+01  0.51109989000E-03 0. -1.
     -623   -1    0    0    0    0  0.00000000000E+00  0.00000000000E+00  0.12525980253E-10  0.17130000000E+03  0.17130000000E+03 0.  1.
       11    1    1    2    0    0 -0.16495399277E-02 -0.25407799193E-02  0.28619827886E+00  0.28621476655E+00  0.51109989000E-03 0. -1.
     -623    1    1    2    0    0  0.37420284226E-02 -0.43831041420E-03  0.48573533453E-04  0.17130000004E+03  0.17130000000E+03 0.  1.
      622    1    1    2    0    0 -0.20924884959E-02  0.29790903336E-02  0.37137531160E+01  0.37137851930E+01  0.15000000000E-01 0. -1.
</event>
<event>
 5   0  0.2306700E+09  0.9118800E+02  0.7818608E-02  0.1180000E+00
       11   -1    0    0    0    0  0.00000000000E+00  0.00000000000E+00  0.39999999673E+01  0.40000000000E+01  0.51109989000E-03 0. -1.
     -623   -1    0    0    0    0  0.00000000000E+00  0.00000000000E+00  0.12525980253E-10  0.17130000000E+03  0.17130000000E+03 0. -1.
       11    1    1    2    0    0  0.15563483871E-02 -0.22216220225E-02  0.55037928508E+00  0.55038620667E+00  0.51109989000E-03 0. -1.
     -623    1    1    2    0    0 -0.16471620571E-03  0.13576932720E-03  0.40412918036E-04  0.17130000000E+03  0.17130000000E+03 0. -1.
      622    1    1    2    0    0 -0.13916321814E-02  0.20858526953E-02  0.34495802694E+01  0.34496137932E+01  0.15000000000E-01 0.  0.
</event>
<event>
 5   0  0.2306700E+09  0.9118800E+02  0.7818608E-02  0.1180000E+00
       11   -1    0    0    0    0  0.00000000000E+00  0.00000000000E+00  0.39999999673E+01  0.40000000000E+01  0.51109989000E-03 0. -1.
     -623   -1    0    0    0    0  0.00000000000E+00  0.00000000000E+00  0.12525980253E-10  0.17130000000E+03  0.17130000000E+03 0. -1.
       11    1    1    2    0    0 -0.38779368753E-02  0.90072138002E-03  0.12273514689E+00  0.12280076220E+00  0.51109989000E-03 0. -1.
     -623    1    1    2    0    0 -0.34343630578E-03 -0.29144392348E-02  0.97444737593E-04  0.17130000003E+03  0.17130000000E+03 0. -1.
      622    1    1    2    0    0  0.42213731810E-02  0.20137178548E-02  0.38771673757E+01  0.38771992126E+01  0.15000000000E-01 0. -1.
</event>
<event>
 5   0  0.2306700E+09  0.9118800E+02  0.7818608E-02  0.1180000E+00
       11   -1    0    0    0    0  0.00000000000E+00  0.00000000000E+00  0.39999999673E+01  0.40000000000E+01  0.51109989000E-03 0.  1.
     -623   -1    0    0    0    0  0.00000000000E+00  0.00000000000E+00  0.12525980253E-10  0.17130000000E+03  0.17130000000E+03 0. -1.
       11    1    1    2    0    0 -0.12315734779E-01  0.53741710176E-02  0.44711632199E+00  0.44731848346E+00  0.51109989000E-03 0.  1.
     -623    1    1    2    0    0 -0.13052617820E-01 -0.15019914192E-01  0.33862107103E-03  0.17130000116E+03  0.17130000000E+03 0. -1.
      622    1    1    2    0    0  0.25368352599E-01  0.96457431743E-02  0.35525450243E+01  0.35526803604E+01  0.15000000000E-01 0.  1.
</event>
<event>
 5   0  0.2306700E+09  0.9118800E+02  0.7818608E-02  0.1180000E+00
       11   -1    0    0    0    0  0.00000000000E+00  0.00000000000E+00  0.39999999673E+01  0.40000000000E+01  0.51109989000E-03 0.  1.
     -623   -1    0    0    0    0  0.00000000000E+00  0.00000000000E+00  0.12525980253E-10  0.17130000000E+03  0.17130000000E+03 0. -1.
       11    1    1    2    0    0  0.25251240204E-02  0.47615042764E-02  0.10865415182E+00  0.10878894293E+00  0.51109989000E-03 0.  1.
     -623    1    1    2    0    0 -0.14811423586E-03 -0.12409255771E-03  0.16715947421E-03  0.17130000000E+03  0.17130000000E+03 0. -1.
      622    1    1    2    0    0 -0.23770097845E-02 -0.46374117187E-02  0.38911786561E+01  0.38912110569E+01  0.15000000000E-01 0.  0.
</event>
<event>
 5   0  0.2306700E+09  0.9118800E+02  0.7818608E-02  0.1180000E+00
       11   -1    0    0    0    0  0.00000000000E+00  0.00000000000E+00  0.39999999673E+01  0.40000000000E+01  0.51109989000E-03 0. -1.
     -623   -1    0    0    0    0  0.00000000000E+00  0.00000000000E+00  0.12525980253E-10  0.17130000000E+03  0.17130000000E+03 0. -1.
       11    1    1    2    0    0  0.40763107753E-02 -0.74198232928E-02  0.89088509287E+00  0.89092546265E+00  0.51109989000E-03 0. -1.
     -623    1    1    2    0    0  0.49226381609E-03  0.92680995926E-03  0.86661760062E-04  0.17130000000E+03  0.17130000000E+03 0. -1.
      622    1    1    2    0    0 -0.45685745914E-02  0.64930133335E-02  0.31090282127E+01  0.31090745341E+01  0.15000000000E-01 0. -1.
</event>
<event>
 5   0  0.2306700E+09  0.9118800E+02  0.7818608E-02  0.1180000E+00
       11   -1    0    0    0    0  0.00000000000E+00  0.00000000000E+00  0.39999999673E+01  0.40000000000E+01  0.51109989000E-03 0.  1.
     -623   -1    0    0    0    0  0.00000000000E+00  0.00000000000E+00  0.12525980253E-10  0.17130000000E+03  0.17130000000E+03 0.  1.
       11    1    1    2    0    0  0.17697666211E-03 -0.15368863497E-04  0.58292878976E+00  0.58292904088E+00  0.51109989000E-03 0.  1.
     -623    1    1    2    0    0 -0.23431814551E-02 -0.45625709970E-04  0.33844782029E-04  0.17130000002E+03  0.17130000000E+03 0.  1.
      622    1    1    2    0    0  0.21662047930E-02  0.60994573466E-04  0.34170373328E+01  0.34170709431E+01  0.15000000000E-01 0.  1.
</event>
<event>
 5   0  0.2306700E+09  0.9118800E+02  0.7818608E-02  0.1180000E+00
       11   -1    0    0    0    0  0.00000000000E+00  0.00000000000E+00  0.39999999673E+01  0.40000000000E+01  0.51109989000E-03 0.  1.
     -623   -1    0    0    0    0  0.00000000000E+00  0.00000000000E+00  0.12525980253E-10  0.17130000000E+03  0.17130000000E+03 0.  1.
       11    1    1    2    0    0  0.31663986410E-02 -0.19079340709E-02  0.66969477345E-01  0.67073380798E-01  0.51109989000E-03 0.  1.
     -623    1    1    2    0    0  0.15934299295E-02  0.93952347258E-03  0.13548515461E-03  0.17130000001E+03  0.17130000000E+03 0.  1.
      622    1    1    2    0    0 -0.47598285700E-02  0.96841059866E-03  0.39328950035E+01  0.39329266078E+01  0.15000000000E-01 0.  1.
</event>
<event>
 5   0  0.2306700E+09  0.9118800E+02  0.7818608E-02  0.1180000E+00
       11   -1    0    0    0    0  0.00000000000E+00  0.00000000000E+00  0.39999999673E+01  0.40000000000E+01  0.51109989000E-03 0.  1.
     -623   -1    0    0    0    0  0.00000000000E+00  0.00000000000E+00  0.12525980253E-10  0.17130000000E+03  0.17130000000E+03 0.  1.
       11    1    1    2    0    0  0.30734269853E-03  0.15894749970E-02  0.67811342755E-01  0.67832590394E-01  0.51109989000E-03 0.  1.
     -623    1    1    2    0    0  0.17468870854E-02  0.53989045838E-03  0.50948186821E-04  0.17130000001E+03  0.17130000000E+03 0.  1.
      622    1    1    2    0    0 -0.20542297849E-02 -0.21293654557E-02  0.39321376785E+01  0.39321674019E+01  0.15000000000E-01 0.  1.
</event>
<event>
 5   0  0.2306700E+09  0.9118800E+02  0.7818608E-02  0.1180000E+00
       11   -1    0    0    0    0  0.00000000000E+00  0.00000000000E+00  0.39999999673E+01  0.40000000000E+01  0.51109989000E-03 0.  1.
     -623   -1    0    0    0    0  0.00000000000E+00  0.00000000000E+00  0.12525980253E-10  0.17130000000E+03  0.17130000000E+03 0. -1.
       11    1    1    2    0    0 -0.14775256307E-03  0.25074599737E-03  0.44738095078E-01  0.44741961051E-01  0.51109989000E-03 0.  1.
     -623    1    1    2    0    0  0.15588535028E-03 -0.10023014748E-03  0.32279561074E-04  0.17130000000E+03  0.17130000000E+03 0. -1.
      622    1    1    2    0    0 -0.81327876208E-05 -0.15051584963E-03  0.39552296032E+01  0.39552580493E+01  0.15000000000E-01 0.  1.
</event>
<event>
 5   0  0.2306700E+09  0.9118800E+02  0.7818608E-02  0.1180000E+00
       11   -1    0    0    0    0  0.00000000000E+00  0.00000000000E+00  0.39999999673E+01  0.40000000000E+01  0.51109989000E-03 0. -1.
     -623   -1    0    0    0    0  0.00000000000E+00  0.00000000000E+00  0.12525980253E-10  0.17130000000E+03  0.17130000000E+03 0.  1.
       11    1    1    2    0    0 -0.61703737951E-03 -0.40408027110E-02  0.82215384310E+00  0.82216416352E+00  0.51109989000E-03 0. -1.
     -623    1    1    2    0    0 -0.11129472555E-03  0.24198424152E-05  0.48338942184E-04  0.17130000000E+03  0.17130000000E+03 0.  1.
      622    1    1    2    0    0  0.72833210524E-03  0.40383828686E-02  0.31777977920E+01  0.31778358431E+01  0.15000000000E-01 0. -1.
</event>
<event>
 5   0  0.2306700E+09  0.9118800E+02  0.7818608E-02  0.1180000E+00
       11   -1    0    0    0    0  0.00000000000E+00  0.00000000000E+00  0.39999999673E+01  0.40000000000E+01  0.51109989000E-03 0.  1.
     -623   -1    0    0    0    0  0.00000000000E+00  0.00000000000E+00  0.12525980253E-10  0.17130000000E+03  0.17130000000E+03 0. -1.
       11    1    1    2    0    0  0.56497957609E-03  0.33223542010E-03  0.32873669920E-01  0.32884175213E-01  0.51109989000E-03 0.  1.
     -623    1    1    2    0    0 -0.35371099719E-03 -0.44816889772E-03  0.38839162448E-04  0.17130000000E+03  0.17130000000E+03 0. -1.
      622    1    1    2    0    0 -0.21126857809E-03  0.11593347866E-03  0.39670874675E+01  0.39671158331E+01  0.15000000000E-01 0.  1.
</event>
<event>
 5   0  0.2306700E+09  0.9118800E+02  0.7818608E-02  0.1180000E+00
       11   -1    0    0    0    0  0.00000000000E+00  0.00000000000E+00  0.39999999673E+01  0.40000000000E+01  0.51109989000E-03 0.  1.
     -623   -1    0    0    0    0  0.00000000000E+00  0.00000000000E+00  0.12525980253E-10  0.17130000000E+03  0.17130000000E+03 0. -1.
       11    1    1    2    0    0  0.56911164005E-03  0.40484718417E-02  0.70090005705E+00  0.70091216654E+00  0.51109989000E-03 0.  1.
     -623    1    1    2    0    0  0.54387072612E-04 -0.91816676070E-04  0.48608992035E-04  0.17130000000E+03  0.17130000000E+03 0. -1.
      622    1    1    2    0    0 -0.62349871258E-03 -0.39566551658E-02  0.32990512949E+01  0.32990878270E+01  0.15000000000E-01 0.  0.
</event>
<event>
 5   0  0.2306700E+09  0.9118800E+02  0.7818608E-02  0.1180000E+00
       11   -1    0    0    0    0  0.00000000000E+00  0.00000000000E+00  0.39999999673E+01  0.40000000000E+01  0.51109989000E-03 0.  1.
     -623   -1    0    0    0    0  0.00000000000E+00  0.00000000000E+00  0.12525980253E-10  0.17130000000E+03  0.17130000000E+03 0.  1.
       11    1    1    2    0    0  0.16742709017E-02 -0.18727638767E-02  0.17538427444E-01  0.17724787371E-01  0.51109989000E-03 0.  1.
     -623    1    1    2    0    0 -0.96200203516E-03 -0.14721555547E-04  0.21509141565E-03  0.17130000000E+03  0.17130000000E+03 0.  1.
      622    1    1    2    0    0 -0.71226886653E-03  0.18874854323E-02  0.39822464485E+01  0.39822752098E+01  0.15000000000E-01 0.  1.
</event>
<event>
 5   0  0.2306700E+09  0.9118800E+02  0.7818608E-02  0.1180000E+00
       11   -1    0    0    0    0  0.00000000000E+00  0.00000000000E+00  0.39999999673E+01  0.40000000000E+01  0.51109989000E-03 0. -1.
     -623   -1    0    0    0    0  0.00000000000E+00  0.00000000000E+00  0.12525980253E-10  0.17130000000E+03  0.17130000000E+03 0. -1.
       11    1    1    2    0    0 -0.12726907824E-02 -0.62904768056E-03  0.73702486177E-01  0.73717929522E-01  0.51109989000E-03 0. -1.
     -623    1    1    2    0    0  0.13416926757E-04 -0.27387954808E-04  0.44320698680E-04  0.17130000000E+03  0.17130000000E+03 0. -1.
      622    1    1    2    0    0  0.12592738557E-02  0.65643563537E-03  0.39262531605E+01  0.39262820705E+01  0.15000000000E-01 0. -1.
</event>
<event>
 5   0  0.2306700E+09  0.9118800E+02  0.7818608E-02  0.1180000E+00
       11   -1    0    0    0    0  0.00000000000E+00  0.00000000000E+00  0.39999999673E+01  0.40000000000E+01  0.51109989000E-03 0.  1.
     -623   -1    0    0    0    0  0.00000000000E+00  0.00000000000E+00  0.12525980253E-10  0.17130000000E+03  0.17130000000E+03 0.  1.
       11    1    1    2    0    0  0.65133803118E-03 -0.83854505105E-05  0.97919933162E+00  0.97919968167E+00  0.51109989000E-03 0.  1.
     -623    1    1    2    0    0  0.36173716442E-04  0.35641858102E-03  0.37658089346E-04  0.17130000000E+03  0.17130000000E+03 0.  1.
      622    1    1    2    0    0 -0.68751174764E-03 -0.34803313067E-03  0.30207629795E+01  0.30208003198E+01  0.15000000000E-01 0.  1.
</event>
<event>
 5   0  0.2306700E+09  0.9118800E+02  0.7818608E-02  0.1180000E+00
       11   -1    0    0    0    0  0.00000000000E+00  0.00000000000E+00  0.39999999673E+01  0.40000000000E+01  0.51109989000E-03 0. -1.
     -623   -1    0    0    0    0  0.00000000000E+00  0.00000000000E+00  0.12525980253E-10  0.17130000000E+03  0.17130000000E+03 0. -1.
       11    1    1    2    0    0 -0.54986719063E-03 -0.45205342146E-03  0.11572056633E-01  0.11605189531E-01  0.51109989000E-03 0. -1.
     -623    1    1    2    0    0  0.15337346758E-03  0.77235427826E-03  0.61341583987E-04  0.17130000000E+03  0.17130000000E+03 0. -1.
      622    1    1    2    0    0  0.39649372288E-03 -0.32030085760E-03  0.39883665733E+01  0.39883948128E+01  0.15000000000E-01 0. -1.
</event>
<event>
 5   0  0.2306700E+09  0.9118800E+02  0.7818608E-02  0.1180000E+00
       11   -1    0    0    0    0  0.00000000000E+00  0.00000000000E+00  0.39999999673E+01  0.40000000000E+01  0.51109989000E-03 0.  1.
     -623   -1    0    0    0    0  0.00000000000E+00  0.00000000000E+00  0.12525980253E-10  0.17130000000E+03  0.17130000000E+03 0. -1.
       11    1    1    2    0    0  0.31896428326E-01  0.13880622444E-01  0.10380001166E+01  0.10385829563E+01  0.51109989000E-03 0.  1.
     -623    1    1    2    0    0 -0.38218833363E-01 -0.37112073725E-02  0.64931097225E-03  0.17130000430E+03  0.17130000000E+03 0. -1.
      622    1    1    2    0    0  0.63224050369E-02 -0.10169415072E-01  0.29613505398E+01  0.29614127388E+01  0.15000000000E-01 0.  1.
</event>
<event>
 5   0  0.2306700E+09  0.9118800E+02  0.7818608E-02  0.1180000E+00
       11   -1    0    0    0    0  0.00000000000E+00  0.00000000000E+00  0.39999999673E+01  0.40000000000E+01  0.51109989000E-03 0.  1.
     -623   -1    0    0    0    0  0.00000000000E+00  0.00000000000E+00  0.12525980253E-10  0.17130000000E+03  0.17130000000E+03 0. -1.
       11    1    1    2    0    0 -0.50421606674E-02 -0.41658856865E-02  0.54382213769E+00  0.54386170728E+00  0.51109989000E-03 0.  1.
     -623    1    1    2    0    0  0.85796906349E-03  0.13468702757E-02  0.75777864328E-04  0.17130000001E+03  0.17130000000E+03 0. -1.
      622    1    1    2    0    0  0.41841916039E-02  0.28190154108E-02  0.34561020518E+01  0.34561382853E+01  0.15000000000E-01 0.  1.
</event>
<event>
 5   0  0.2306700E+09  0.9118800E+02  0.7818608E-02  0.1180000E+00
       11   -1    0    0    0    0  0.00000000000E+00  0.00000000000E+00  0.39999999673E+01  0.40000000000E+01  0.51109989000E-03 0.  1.
     -623   -1    0    0    0    0  0.00000000000E+00  0.00000000000E+00  0.12525980253E-10  0.17130000000E+03  0.17130000000E+03 0.  1.
       11    1    1    2    0    0 -0.21185244171E-02  0.17271141423E-02  0.62104807829E+00  0.62105430345E+00  0.51109989000E-03 0.  1.
     -623    1    1    2    0    0  0.11721873663E-02 -0.58573949845E-03  0.39817409871E-04  0.17130000001E+03  0.17130000000E+03 0.  1.
      622    1    1    2    0    0  0.94633704989E-03 -0.11413746434E-02  0.33789120748E+01  0.33789456947E+01  0.15000000000E-01 0.  1.
</event>
<event>
 5   0  0.2306700E+09  0.9118800E+02  0.7818608E-02  0.1180000E+00
       11   -1    0    0    0    0  0.00000000000E+00  0.00000000000E+00  0.39999999673E+01  0.40000000000E+01  0.51109989000E-03 0.  1.
     -623   -1    0    0    0    0  0.00000000000E+00  0.00000000000E+00  0.12525980253E-10  0.17130000000E+03  0.17130000000E+03 0. -1.
       11    1    1    2    0    0  0.78121630483E-03 -0.87717259631E-04  0.17937601484E-01  0.17962092364E-01  0.51109989000E-03 0.  1.
     -623    1    1    2    0    0 -0.78491040691E-04  0.10708943439E-03  0.52772318976E-04  0.17130000000E+03  0.17130000000E+03 0. -1.
      622    1    1    2    0    0 -0.70272526414E-03 -0.19372174755E-04  0.39820095936E+01  0.39820379076E+01  0.15000000000E-01 0.  1.
</event>
<event>
 5   0  0.2306700E+09  0.9118800E+02  0.7818608E-02  0.1180000E+00
       11   -1    0    0    0    0  0.00000000000E+00  0.00000000000E+00  0.39999999673E+01  0.40000000000E+01  0.51109989000E-03 0. -1.
     -623   -1    0    0    0    0  0.00000000000E+00  0.00000000000E+00  0.12525980253E-10  0.17130000000E+03  0.17130000000E+03 0.  1.
       11    1    1    2    0    0 -0.44575741403E-03  0.21120478008E-02  0.14695330834E+00  0.14697004966E+00  0.51109989000E-03 0. -1.
     -623    1    1    2    0    0  0.63868460536E-03 -0.20229268898E-03  0.46386030073E-04  0.17130000000E+03  0.17130000000E+03 0.  1.
      622    1    1    2    0    0 -0.19292719133E-03 -0.19097551118E-02  0.38530002730E+01  0.38530299490E+01  0.15000000000E-01 0. -1.
</event>
<event>
 5   0  0.2306700E+09  0.9118800E+02  0.7818608E-02  0.1180000E+00
       11   -1    0    0    0    0  0.00000000000E+00  0.00000000000E+00  0.39999999673E+01  0.40000000000E+01  0.51109989000E-03 0.  1.
     -623   -1    0    0    0    0  0.00000000000E+00  0.00000000000E+00  0.12525980253E-10  0.17130000000E+03  0.17130000000E+03 0.  1.
       11    1    1    2    0    0  0.62055567178E-03  0.67731821504E-03  0.25876432962E-01  0.25897777033E-01  0.51109989000E-03 0.  1.
     -623    1    1    2    0    0 -0.68542479646E-03  0.43408632576E-03  0.49777679745E-04  0.17130000000E+03  0.17130000000E+03 0.  1.
      622    1    1    2    0    0  0.64869124087E-04 -0.11114045404E-02  0.39740737533E+01  0.39741022176E+01  0.15000000000E-01 0.  1.
</event>
<event>
 5   0  0.2306700E+09  0.9118800E+02  0.7818608E-02  0.1180000E+00
       11   -1    0    0    0    0  0.00000000000E+00  0.00000000000E+00  0.39999999673E+01  0.40000000000E+01  0.51109989000E-03 0. -1.
     -623   -1    0    0    0    0  0.00000000000E+00  0.00000000000E+00  0.12525980253E-10  0.17130000000E+03  0.17130000000E+03 0. -1.
       11    1    1    2    0    0  0.21437708931E-02 -0.68678046813E-03  0.21252987550E+00  0.21254241135E+00  0.51109989000E-03 0. -1.
     -623    1    1    2    0    0  0.13790022790E-02  0.47037421454E-02  0.46045278256E-04  0.17130000007E+03  0.17130000000E+03 0. -1.
      622    1    1    2    0    0 -0.35227731721E-02 -0.40169616772E-02  0.37874240466E+01  0.37874575185E+01  0.15000000000E-01 0. -1.
</event>
<event>
 5   0  0.2306700E+09  0.9118800E+02  0.7818608E-02  0.1180000E+00
       11   -1    0    0    0    0  0.00000000000E+00  0.00000000000E+00  0.39999999673E+01  0.40000000000E+01  0.51109989000E-03 0. -1.
     -623   -1    0    0    0    0  0.00000000000E+00  0.00000000000E+00  0.12525980253E-10  0.17130000000E+03  0.17130000000E+03 0.  1.
       11    1    1    2    0    0 -0.21202058847E-02  0.31249178768E-03  0.48865874589E+00  0.48866371267E+00  0.51109989000E-03 0. -1.
     -623    1    1    2    0    0 -0.22937612022E-02 -0.14151375505E-02  0.39942048043E-04  0.17130000002E+03  0.17130000000E+03 0.  1.
      622    1    1    2    0    0  0.44139670869E-02  0.11026457628E-02  0.35113012794E+01  0.35113362661E+01  0.15000000000E-01 0. -1.
</event>
<event>
 5   0  0.2306700E+09  0.9118800E+02  0.7818608E-02  0.1180000E+00
       11   -1    0    0    0    0  0.00000000000E+00  0.00000000000E+00  0.39999999673E+01  0.40000000000E+01  0.51109989000E-03 0.  1.
     -623   -1    0    0    0    0  0.00000000000E+00  0.00000000000E+00  0.12525980253E-10  0.17130000000E+03  0.17130000000E+03 0.  1.
       11    1    1    2    0    0  0.10030524690E-01  0.18506929067E-01  0.10842611801E+01  0.10844656222E+01  0.51109989000E-03 0.  1.
     -623    1    1    2    0    0 -0.41244371848E-03  0.17905042617E-02  0.32952687868E-03  0.17130000001E+03  0.17130000000E+03 0.  1.
      622    1    1    2    0    0 -0.96180809720E-02 -0.20297433329E-01  0.29154092605E+01  0.29155343677E+01  0.15000000000E-01 0.  1.
</event>
<event>
 5   0  0.2306700E+09  0.9118800E+02  0.7818608E-02  0.1180000E+00
       11   -1    0    0    0    0  0.00000000000E+00  0.00000000000E+00  0.39999999673E+01  0.40000000000E+01  0.51109989000E-03 0. -1.
     -623   -1    0    0    0    0  0.00000000000E+00  0.00000000000E+00  0.12525980253E-10  0.17130000000E+03  0.17130000000E+03 0.  1.
       11    1    1    2    0    0  0.11305077196E-02  0.11672149028E-02  0.85355240001E-01  0.85372235866E-01  0.51109989000E-03 0. -1.
     -623    1    1    2    0    0 -0.23002961342E-02 -0.41506840519E-03  0.45964689484E-04  0.17130000002E+03  0.17130000000E+03 0.  1.
      622    1    1    2    0    0  0.11697884145E-02 -0.75214649765E-03  0.39145987627E+01  0.39146277482E+01  0.15000000000E-01 0. -1.
</event>
<event>
 5   0  0.2306700E+09  0.9118800E+02  0.7818608E-02  0.1180000E+00
       11   -1    0    0    0    0  0.00000000000E+00  0.00000000000E+00  0.39999999673E+01  0.40000000000E+01  0.51109989000E-03 0. -1.
     -623   -1    0    0    0    0  0.00000000000E+00  0.00000000000E+00  0.12525980253E-10  0.17130000000E+03  0.17130000000E+03 0. -1.
       11    1    1    2    0    0 -0.17794106854E-03  0.50546210476E-02  0.92844055350E+00  0.92845447032E+00  0.51109989000E-03 0. -1.
     -623    1    1    2    0    0 -0.97671343811E-03 -0.22781972611E-03  0.54523492105E-04  0.17130000000E+03  0.17130000000E+03 0. -1.
      622    1    1    2    0    0  0.11546545067E-02 -0.48268013215E-02  0.30715048904E+01  0.30715455267E+01  0.15000000000E-01 0. -1.
</event>
<event>
 5   0  0.2306700E+09  0.9118800E+02  0.7818608E-02  0.1180000E+00
       11   -1    0    0    0    0  0.00000000000E+00  0.00000000000E+00  0.39999999673E+01  0.40000000000E+01  0.51109989000E-03 0. -1.
     -623   -1    0    0    0    0  0.00000000000E+00  0.00000000000E+00  0.12525980253E-10  0.17130000000E+03  0.17130000000E+03 0. -1.
       11    1    1    2    0    0 -0.42667533855E-01  0.58455647470E-02  0.11436630316E+00  0.12220720761E+00  0.51109989000E-03 0. -1.
     -623    1    1    2    0    0  0.27157316578E-01 -0.70710240095E-02  0.79035768144E-02  0.17130000248E+03  0.17130000000E+03 0. -1.
      622    1    1    2    0    0  0.15510217278E-01  0.12254592625E-02  0.38777300874E+01  0.38777903114E+01  0.15000000000E-01 0. -1.
</event>
<event>
 5   0  0.2306700E+09  0.9118800E+02  0.7818608E-02  0.1180000E+00
       11   -1    0    0    0    0  0.00000000000E+00  0.00000000000E+00  0.39999999673E+01  0.40000000000E+01  0.51109989000E-03 0.  1.
     -623   -1    0    0    0    0  0.00000000000E+00  0.00000000000E+00  0.12525980253E-10  0.17130000000E+03  0.17130000000E+03 0. -1.
       11    1    1    2    0    0 -0.36456583064E-01 -0.13836833711E-01  0.36009853482E+00  0.36220402595E+00  0.51109989000E-03 0.  1.
     -623    1    1    2    0    0  0.19123437135E-01 -0.63682120608E-03  0.22075551238E-02  0.17130000108E+03  0.17130000000E+03 0. -1.
      622    1    1    2    0    0  0.17333145929E-01  0.14473654917E-01  0.36376938774E+01  0.36377948912E+01  0.15000000000E-01 0.  1.
</event>
<event>
 5   0  0.2306700E+09  0.9118800E+02  0.7818608E-02  0.1180000E+00
       11   -1    0    0    0    0  0.00000000000E+00  0.00000000000E+00  0.39999999673E+01  0.40000000000E+01  0.51109989000E-03 0. -1.
     -623   -1    0    0    0    0  0.00000000000E+00  0.00000000000E+00  0.12525980253E-10  0.17130000000E+03  0.17130000000E+03 0.  1.
       11    1    1    2    0    0 -0.27009512604E-03  0.22149660150E-03  0.38838148553E-01  0.38843081987E-01  0.51109989000E-03 0. -1.
     -623    1    1    2    0    0 -0.81019261074E-05  0.25786452425E-05  0.33317799429E-04  0.17130000000E+03  0.17130000000E+03 0.  1.
      622    1    1    2    0    0  0.27819705218E-03 -0.22407524675E-03  0.39611285132E+01  0.39611569302E+01  0.15000000000E-01 0. -1.
</event>
<event>
 5   0  0.2306700E+09  0.9118800E+02  0.7818608E-02  0.1180000E+00
       11   -1    0    0    0    0  0.00000000000E+00  0.00000000000E+00  0.39999999673E+01  0.40000000000E+01  0.51109989000E-03 0. -1.
     -623   -1    0    0    0    0  0.00000000000E+00  0.00000000000E+00  0.12525980253E-10  0.17130000000E+03  0.17130000000E+03 0.  1.
       11    1    1    2    0    0  0.92862755654E-03  0.62701541764E-02  0.56992763710E+00  0.56996311278E+00  0.51109989000E-03 0. -1.
     -623    1    1    2    0    0 -0.22919404526E-03 -0.54800764483E-04  0.73944457466E-04  0.17130000000E+03  0.17130000000E+03 0.  1.
      622    1    1    2    0    0 -0.69943351096E-03 -0.62153534119E-02  0.34299983914E+01  0.34300368926E+01  0.15000000000E-01 0. -1.
</event>
<event>
 5   0  0.2306700E+09  0.9118800E+02  0.7818608E-02  0.1180000E+00
       11   -1    0    0    0    0  0.00000000000E+00  0.00000000000E+00  0.39999999673E+01  0.40000000000E+01  0.51109989000E-03 0. -1.
     -623   -1    0    0    0    0  0.00000000000E+00  0.00000000000E+00  0.12525980253E-10  0.17130000000E+03  0.17130000000E+03 0. -1.
       11    1    1    2    0    0  0.16510183731E-02  0.16556885016E-02  0.92093829652E-01  0.92124925233E-01  0.51109989000E-03 0. -1.
     -623    1    1    2    0    0 -0.46334260689E-03 -0.79341584373E-02  0.65259533121E-04  0.17130000018E+03  0.17130000000E+03 0. -1.
      622    1    1    2    0    0 -0.11876757652E-02  0.62784699531E-02  0.39078408870E+01  0.39078748992E+01  0.15000000000E-01 0. -1.
</event>
<event>
 5   0  0.2306700E+09  0.9118800E+02  0.7818608E-02  0.1180000E+00
       11   -1    0    0    0    0  0.00000000000E+00  0.00000000000E+00  0.39999999673E+01  0.40000000000E+01  0.51109989000E-03 0. -1.
     -623   -1    0    0    0    0  0.00000000000E+00  0.00000000000E+00  0.12525980253E-10  0.17130000000E+03  0.17130000000E+03 0.  1.
       11    1    1    2    0    0 -0.18211644281E-03  0.27250376313E-02  0.14827231385E+00  0.14829834549E+00  0.51109989000E-03 0. -1.
     -623    1    1    2    0    0 -0.18261111996E-03  0.40112433509E-04  0.56216919696E-04  0.17130000000E+03  0.17130000000E+03 0.  1.
      622    1    1    2    0    0  0.36472756290E-03 -0.27651500649E-02  0.38516714395E+01  0.38517016573E+01  0.15000000000E-01 0. -1.
</event>
<event>
 5   0  0.2306700E+09  0.9118800E+02  0.7818608E-02  0.1180000E+00
       11   -1    0    0    0    0  0.00000000000E+00  0.00000000000E+00  0.39999999673E+01  0.40000000000E+01  0.51109989000E-03 0.  1.
     -623   -1    0    0    0    0  0.00000000000E+00  0.00000000000E+00  0.12525980253E-10  0.17130000000E+03  0.17130000000E+03 0.  1.
       11    1    1    2    0    0  0.12949063833E-02 -0.24369273055E-02  0.79676552009E-02  0.84474936953E-02  0.51109989000E-03 0.  1.
     -623    1    1    2    0    0  0.10238101412E-02  0.32374421416E-03  0.50922745943E-03  0.17130000000E+03  0.17130000000E+03 0.  1.
      622    1    1    2    0    0 -0.23187165245E-02  0.21131830913E-02  0.39915230847E+01  0.39915525022E+01  0.15000000000E-01 0.  1.
</event>
<event>
 5   0  0.2306700E+09  0.9118800E+02  0.7818608E-02  0.1180000E+00
       11   -1    0    0    0    0  0.00000000000E+00  0.00000000000E+00  0.39999999673E+01  0.40000000000E+01  0.51109989000E-03 0. -1.
     -623   -1    0    0    0    0  0.00000000000E+00  0.00000000000E+00  0.12525980253E-10  0.17130000000E+03  0.17130000000E+03 0. -1.
       11    1    1    2    0    0 -0.20950765393E-02  0.76906814311E-03  0.90462142175E+00  0.90462431911E+00  0.51109989000E-03 0. -1.
     -623    1    1    2    0    0  0.71881628027E-04 -0.38130855358E-03  0.39895409126E-04  0.17130000000E+03  0.17130000000E+03 0. -1.
      622    1    1    2    0    0  0.20231949112E-02 -0.38775958922E-03  0.30953386536E+01  0.30953756838E+01  0.15000000000E-01 0. -1.
</event>
<event>
 5   0  0.2306700E+09  0.9118800E+02  0.7818608E-02  0.1180000E+00
       11   -1    0    0    0    0  0.00000000000E+00  0.00000000000E+00  0.39999999673E+01  0.40000000000E+01  0.51109989000E-03 0.  1.
     -623   -1    0    0    0    0  0.00000000000E+00  0.00000000000E+00  0.12525980253E-10  0.17130000000E+03  0.17130000000E+03 0. -1.
       11    1    1    2    0    0 -0.89191197648E-04 -0.13663495552E-03  0.12741910603E-02  0.13825367807E-02  0.51109989000E-03 0.  1.
     -623    1    1    2    0    0  0.85777531663E-03  0.13125945331E-02  0.13670192196E-03  0.17130000001E+03  0.17130000000E+03 0. -1.
      622    1    1    2    0    0 -0.76858411899E-03 -0.11759595776E-02  0.39985890744E+01  0.39986174560E+01  0.15000000000E-01 0.  1.
</event>
<event>
 5   0  0.2306700E+09  0.9118800E+02  0.7818608E-02  0.1180000E+00
       11   -1    0    0    0    0  0.00000000000E+00  0.00000000000E+00  0.39999999673E+01  0.40000000000E+01  0.51109989000E-03 0. -1.
     -623   -1    0    0    0    0  0.00000000000E+00  0.00000000000E+00  0.12525980253E-10  0.17130000000E+03  0.17130000000E+03 0.  1.
       11    1    1    2    0    0 -0.25758453335E-02  0.21979779693E-02  0.88043577808E+00  0.88044243800E+00  0.51109989000E-03 0. -1.
     -623    1    1    2    0    0 -0.26509070842E-04 -0.74208772656E-04  0.44498713193E-04  0.17130000000E+03  0.17130000000E+03 0.  1.
      622    1    1    2    0    0  0.26023544043E-02 -0.21237691967E-02  0.31195196907E+01  0.31195575621E+01  0.15000000000E-01 0. -1.
</event>
<event>
 5   0  0.2306700E+09  0.9118800E+02  0.7818608E-02  0.1180000E+00
       11   -1    0    0    0    0  0.00000000000E+00  0.00000000000E+00  0.39999999673E+01  0.40000000000E+01  0.51109989000E-03 0. -1.
     -623   -1    0    0    0    0  0.00000000000E+00  0.00000000000E+00  0.12525980253E-10  0.17130000000E+03  0.17130000000E+03 0. -1.
       11    1    1    2    0    0  0.30903186986E-03 -0.30759826374E-03  0.19657423241E+00  0.19657538042E+00  0.51109989000E-03 0. -1.
     -623    1    1    2    0    0 -0.28590558240E-03  0.46360233641E-03  0.30698231767E-04  0.17130000000E+03  0.17130000000E+03 0. -1.
      622    1    1    2    0    0 -0.23126287317E-04 -0.15600407291E-03  0.38033950387E+01  0.38034246207E+01  0.15000000000E-01 0. -1.
</event>
<event>
 5   0  0.2306700E+09  0.9118800E+02  0.7818608E-02  0.1180000E+00
       11   -1    0    0    0    0  0.00000000000E+00  0.00000000000E+00  0.39999999673E+01  0.40000000000E+01  0.51109989000E-03 0. -1.
     -623   -1    0    0    0    0  0.00000000000E+00  0.00000000000E+00  0.12525980253E-10  0.17130000000E+03  0.17130000000E+03 0.  1.
       11    1    1    2    0    0  0.58275552589E-03 -0.79338637621E-03  0.13114747218E+00  0.13115216257E+00  0.51109989000E-03 0. -1.
     -623    1    1    2    0    0 -0.28930320744E-02  0.51465051126E-03  0.34461331062E-04  0.17130000003E+03  0.17130000000E+03 0.  1.
      622    1    1    2    0    0  0.23102765508E-02  0.27873586455E-03  0.38688180370E+01  0.38688478154E+01  0.15000000000E-01 0. -1.
</event>
<event>
 5   0  0.2306700E+09  0.9118800E+02  0.7818608E-02  0.1180000E+00
       11   -1    0    0    0    0  0.00000000000E+00  0.00000000000E+00  0.39999999673E+01  0.40000000000E+01  0.51109989000E-03 0.  1.
     -623   -1    0    0    0    0  0.00000000000E+00  0.00000000000E+00  0.12525980253E-10  0.17130000000E+03  0.17130000000E+03 0.  1.
       11    1    1    2    0    0 -0.10848926326E-03  0.28593191709E-02  0.48913887448E-01  0.49000174330E-01  0.51109989000E-03 0.  1.
     -623    1    1    2    0    0  0.82881043273E-03 -0.37004284805E-03  0.11558043068E-03  0.17130000000E+03  0.17130000000E+03 0.  1.
      622    1    1    2    0    0 -0.72032116905E-03 -0.24892763230E-02  0.39509704975E+01  0.39509998212E+01  0.15000000000E-01 0.  1.
</event>
<event>
 5   0  0.2306700E+09  0.9118800E+02  0.7818608E-02  0.1180000E+00
       11   -1    0    0    0    0  0.00000000000E+00  0.00000000000E+00  0.39999999673E+01  0.40000000000E+01  0.51109989000E-03 0. -1.
     -623   -1    0    0    0    0  0.00000000000E+00  0.00000000000E+00  0.12525980253E-10  0.17130000000E+03  0.17130000000E+03 0. -1.
       11    1    1    2    0    0  0.28353710725E-02  0.68485583874E-02  0.35198552190E+00  0.35206393018E+00  0.51109989000E-03 0. -1.
     -623    1    1    2    0    0  0.28235572086E-03  0.10464116094E-03  0.11717441574E-03  0.17130000000E+03  0.17130000000E+03 0. -1.
      622    1    1    2    0    0 -0.31177267935E-02 -0.69531995484E-02  0.36478972732E+01  0.36479360716E+01  0.15000000000E-01 0. -1.
</event>
<event>
 5   0  0.2306700E+09  0.9118800E+02  0.7818608E-02  0.1180000E+00
       11   -1    0    0    0    0  0.00000000000E+00  0.00000000000E+00  0.39999999673E+01  0.40000000000E+01  0.51109989000E-03 0. -1.
     -623   -1    0    0    0    0  0.00000000000E+00  0.00000000000E+00  0.12525980253E-10  0.17130000000E+03  0.17130000000E+03 0. -1.
       11    1    1    2    0    0  0.19024500174E-03  0.28414274061E-03  0.66245821100E-02  0.66530625645E-02  0.51109989000E-03 0. -1.
     -623    1    1    2    0    0 -0.24032073272E-03  0.16892604453E-03  0.56646048173E-04  0.17130000000E+03  0.17130000000E+03 0. -1.
      622    1    1    2    0    0  0.50075730804E-04 -0.45306878503E-03  0.39933187364E+01  0.39933469343E+01  0.15000000000E-01 0. -1.
</event>
<event>
 5   0  0.2306700E+09  0.9118800E+02  0.7818608E-02  0.1180000E+00
       11   -1    0    0    0    0  0.00000000000E+00  0.00000000000E+00  0.39999999673E+01  0.40000000000E+01  0.51109989000E-03 0. -1.
     -623   -1    0    0    0    0  0.00000000000E+00  0.00000000000E+00  0.12525980253E-10  0.17130000000E+03  0.17130000000E+03 0.  1.
       11    1    1    2    0    0 -0.11799669064E-02  0.12304728363E-02  0.44388319550E-01  0.44423985873E-01  0.51109989000E-03 0. -1.
     -623    1    1    2    0    0 -0.10493812723E-03  0.23859150835E-03  0.64556352375E-04  0.17130000000E+03  0.17130000000E+03 0.  1.
      622    1    1    2    0    0  0.12849050335E-02 -0.14690643444E-02  0.39555470887E+01  0.39555760112E+01  0.15000000000E-01 0.  0.
</event>
<event>
 5   0  0.2306700E+09  0.9118800E+02  0.7818608E-02  0.1180000E+00
       11   -1    0    0    0    0  0.00000000000E+00  0.00000000000E+00  0.39999999673E+01  0.40000000000E+01  0.51109989000E-03 0. -1.
     -623   -1    0    0    0    0  0.00000000000E+00  0.00000000000E+00  0.12525980253E-10  0.17130000000E+03  0.17130000000E+03 0.  1.
       11    1    1    2    0    0  0.12139232149E-02  0.34019232519E-03  0.47663174535E-01  0.47682583495E-01  0.51109989000E-03 0. -1.
     -623    1    1    2    0    0  0.19774975228E-03 -0.52006134280E-03  0.48097848632E-04  0.17130000000E+03  0.17130000000E+03 0.  1.
      622    1    1    2    0    0 -0.14116729672E-02  0.17986901762E-03  0.39522886950E+01  0.39523174156E+01  0.15000000000E-01 0. -1.
</event>
<event>
 5   0  0.2306700E+09  0.9118800E+02  0.7818608E-02  0.1180000E+00
       11   -1    0    0    0    0  0.00000000000E+00  0.00000000000E+00  0.39999999673E+01  0.40000000000E+01  0.51109989000E-03 0.  1.
     -623   -1    0    0    0    0  0.00000000000E+00  0.00000000000E+00  0.12525980253E-10  0.17130000000E+03  0.17130000000E+03 0.  1.
       11    1    1    2    0    0  0.14404273983E-02 -0.51296954040E-02  0.16161325301E+00  0.16170186572E+00  0.51109989000E-03 0.  1.
     -623    1    1    2    0    0 -0.19131756684E-03 -0.10145546808E-03  0.12165823202E-03  0.17130000000E+03  0.17130000000E+03 0.  1.
      622    1    1    2    0    0 -0.12491098311E-02  0.52311508722E-02  0.38382650621E+01  0.38382981400E+01  0.15000000000E-01 0.  1.
</event>
<event>
 5   0  0.2306700E+09  0.9118800E+02  0.7818608E-02  0.1180000E+00
       11   -1    0    0    0    0  0.00000000000E+00  0.00000000000E+00  0.39999999673E+01  0.40000000000E+01  0.51109989000E-03 0. -1.
     -623   -1    0    0    0    0  0.00000000000E+00  0.00000000000E+00  0.12525980253E-10  0.17130000000E+03  0.17130000000E+03 0. -1.
       11    1    1    2    0    0  0.62411929070E-02 -0.27938040243E-02  0.41399499341E+00  0.41405177649E+00  0.51109989000E-03 0. -1.
     -623    1    1    2    0    0 -0.13458811527E-01  0.51896959481E-02  0.96794508331E-04  0.17130000061E+03  0.17130000000E+03 0. -1.
      622    1    1    2    0    0  0.72176186001E-02 -0.23958919160E-02  0.35859081734E+01  0.35859476101E+01  0.15000000000E-01 0. -1.
</event>
<event>
 5   0  0.2306700E+09  0.9118800E+02  0.7818608E-02  0.1180000E+00
       11   -1    0    0    0    0  0.00000000000E+00  0.00000000000E+00  0.39999999673E+01  0.40000000000E+01  0.51109989000E-03 0.  1.
     -623   -1    0    0    0    0  0.00000000000E+00  0.00000000000E+00  0.12525980253E-10  0.17130000000E+03  0.17130000000E+03 0. -1.
       11    1    1    2    0    0 -0.31720686024E-03 -0.51824662446E-03  0.23069193100E+00  0.23069329736E+00  0.51109989000E-03 0.  1.
     -623    1    1    2    0    0 -0.19731535637E-03  0.61520871185E-04  0.31243098154E-04  0.17130000000E+03  0.17130000000E+03 0. -1.
      622    1    1    2    0    0  0.51452221661E-03  0.45672575327E-03  0.37692767933E+01  0.37693067025E+01  0.15000000000E-01 0.  1.
</event>
<event>
 5   0  0.2306700E+09  0.9118800E+02  0.7818608E-02  0.1180000E+00
       11   -1    0    0    0    0  0.00000000000E+00  0.00000000000E+00  0.39999999673E+01  0.40000000000E+01  0.51109989000E-03 0. -1.
     -623   -1    0    0    0    0  0.00000000000E+00  0.00000000000E+00  0.12525980253E-10  0.17130000000E+03  0.17130000000E+03 0.  1.
       11    1    1    2    0    0  0.35642441918E-01  0.19466091306E-01  0.57711601439E+00  0.57854340172E+00  0.51109989000E-03 0. -1.
     -623    1    1    2    0    0 -0.12167173842E-01 -0.57881860677E-02  0.15686495426E-02  0.17130000054E+03  0.17130000000E+03 0.  1.
      622    1    1    2    0    0 -0.23475268076E-01 -0.13677905238E-01  0.34213153036E+01  0.34214560614E+01  0.15000000000E-01 0. -1.
</event>
<event>
 5   0  0.2306700E+09  0.9118800E+02  0.7818608E-02  0.1180000E+00
       11   -1    0    0    0    0  0.00000000000E+00  0.00000000000E+00  0.39999999673E+01  0.40000000000E+01  0.51109989000E-03 0. -1.
     -623   -1    0    0    0    0  0.00000000000E+00  0.00000000000E+00  0.12525980253E-10  0.17130000000E+03  0.17130000000E+03 0.  1.
       11    1    1    2    0    0  0.45739415113E-03  0.80868795126E-03  0.39442130898E-01  0.39456382227E-01  0.51109989000E-03 0. -1.
     -623    1    1    2    0    0 -0.57489862328E-04  0.37719921610E-04  0.42734635342E-04  0.17130000000E+03  0.17130000000E+03 0.  1.
      622    1    1    2    0    0 -0.39990428890E-03 -0.84640787281E-03  0.39605150955E+01  0.39605436114E+01  0.15000000000E-01 0. -1.
</event>
<event>
 5   0  0.2306700E+09  0.9118800E+02  0.7818608E-02  0.1180000E+00
       11   -1    0    0    0    0  0.00000000000E+00  0.00000000000E+00  0.39999999673E+01  0.40000000000E+01  0.51109989000E-03 0.  1.
     -623   -1    0    0    0    0  0.00000000000E+00  0.00000000000E+00  0.12525980253E-10  0.17130000000E+03  0.17130000000E+03 0.  1.
       11    1    1    2    0    0 -0.43387783041E-03  0.82198153647E-03  0.53255515598E-01  0.53266078018E-01  0.51109989000E-03 0.  1.
     -623    1    1    2    0    0 -0.39203691392E-03 -0.36586305565E-03  0.39148083720E-04  0.17130000000E+03  0.17130000000E+03 0.  1.
      622    1    1    2    0    0  0.82591474432E-03 -0.45611848082E-03  0.39467053037E+01  0.39467339211E+01  0.15000000000E-01 0.  1.
</event>
<event>
 5   0  0.2306700E+09  0.9118800E+02  0.7818608E-02  0.1180000E+00
       11   -1    0    0    0    0  0.00000000000E+00  0.00000000000E+00  0.39999999673E+01  0.40000000000E+01  0.51109989000E-03 0.  1.
     -623   -1    0    0    0    0  0.00000000000E+00  0.00000000000E+00  0.12525980253E-10  0.17130000000E+03  0.17130000000E+03 0. -1.
       11    1    1    2    0    0  0.14152135440E-03 -0.28514001103E-02  0.11810415164E+00  0.11813975778E+00  0.51109989000E-03 0.  1.
     -623    1    1    2    0    0 -0.20071823001E-02  0.36803616067E-02  0.65142710904E-04  0.17130000005E+03  0.17130000000E+03 0. -1.
      622    1    1    2    0    0  0.18656609510E-02 -0.82896150621E-03  0.38818306836E+01  0.38818602015E+01  0.15000000000E-01 0.  1.
</event>
<event>
 5   0  0.2306700E+09  0.9118800E+02  0.7818608E-02  0.1180000E+00
       11   -1    0    0    0    0  0.00000000000E+00  0.00000000000E+00  0.39999999673E+01  0.40000000000E+01  0.51109989000E-03 0.  1.
     -623   -1    0    0    0    0  0.00000000000E+00  0.00000000000E+00  0.12525980253E-10  0.17130000000E+03  0.17130000000E+03 0. -1.
       11    1    1    2    0    0  0.97712456752E-03  0.37022189375E-02  0.50923160796E-01  0.51069469594E-01  0.51109989000E-03 0.  1.
     -623    1    1    2    0    0  0.44468318875E-03 -0.36606031953E-03  0.17643125528E-03  0.17130000000E+03  0.17130000000E+03 0. -1.
      622    1    1    2    0    0 -0.14218077563E-02 -0.33361586180E-02  0.39489003753E+01  0.39489305293E+01  0.15000000000E-01 0.  1.
</event>
<event>
 5   0  0.2306700E+09  0.9118800E+02  0.7818608E-02  0.1180000E+00
       11   -1    0    0    0    0  0.00000000000E+00  0.00000000000E+00  0.39999999673E+01  0.40000000000E+01  0.51109989000E-03 0. -1.
     -623   -1    0    0    0    0  0.00000000000E+00  0.00000000000E+00  0.12525980253E-10  0.17130000000E+03  0.17130000000E+03 0.  1.
       11    1    1    2    0    0 -0.26830073312E-02 -0.19295959699E-02  0.20509991622E+00  0.20512717695E+00  0.51109989000E-03 0. -1.
     -623    1    1    2    0    0  0.17739890877E-02 -0.15344207586E-02  0.58579426784E-04  0.17130000002E+03  0.17130000000E+03 0.  1.
      622    1    1    2    0    0  0.90901824342E-03  0.34640167284E-02  0.37948414717E+01  0.37948728070E+01  0.15000000000E-01 0. -1.
</event>
<event>
 5   0  0.2306700E+09  0.9118800E+02  0.7818608E-02  0.1180000E+00
       11   -1    0    0    0    0  0.00000000000E+00  0.00000000000E+00  0.39999999673E+01  0.40000000000E+01  0.51109989000E-03 0.  1.
     -623   -1    0    0    0    0  0.00000000000E+00  0.00000000000E+00  0.12525980253E-10  0.17130000000E+03  0.17130000000E+03 0.  1.
       11    1    1    2    0    0  0.16099706082E-02  0.81038851319E-02  0.26163777152E+00  0.26176869498E+00  0.51109989000E-03 0.  1.
     -623    1    1    2    0    0  0.30314537650E-03 -0.10136029934E-04  0.17023735967E-03  0.17130000000E+03  0.17130000000E+03 0.  1.
      622    1    1    2    0    0 -0.19131159849E-02 -0.80937491020E-02  0.37381919603E+01  0.37382313065E+01  0.15000000000E-01 0.  1.
</event>
<event>
 5   0  0.2306700E+09  0.9118800E+02  0.7818608E-02  0.1180000E+00
       11   -1    0    0    0    0  0.00000000000E+00  0.00000000000E+00  0.39999999673E+01  0.40000000000E+01  0.51109989000E-03 0.  1.
     -623   -1    0    0    0    0  0.00000000000E+00  0.00000000000E+00  0.12525980253E-10  0.17130000000E+03  0.17130000000E+03 0. -1.
       11    1    1    2    0    0  0.27672606399E-02 -0.41353945136E-02  0.21214780347E-01  0.21796498453E-01  0.51109989000E-03 0.  1.
     -623    1    1    2    0    0  0.24180807593E-03  0.17607654357E-02  0.61182172154E-03  0.17130000001E+03  0.17130000000E+03 0. -1.
      622    1    1    2    0    0 -0.30090687158E-02  0.23746290780E-02  0.39781733653E+01  0.39782034912E+01  0.15000000000E-01 0.  1.
</event>
<event>
 5   0  0.2306700E+09  0.9118800E+02  0.7818608E-02  0.1180000E+00
       11   -1    0    0    0    0  0.00000000000E+00  0.00000000000E+00  0.39999999673E+01  0.40000000000E+01  0.51109989000E-03 0.  1.
     -623   -1    0    0    0    0  0.00000000000E+00  0.00000000000E+00  0.12525980253E-10  0.17130000000E+03  0.17130000000E+03 0. -1.
       11    1    1    2    0    0  0.63878369572E-02 -0.48373375215E-02  0.53114379781E+00  0.53120447990E+00  0.51109989000E-03 0.  1.
     -623    1    1    2    0    0  0.11952002598E-04 -0.24356797972E-03  0.10270671549E-03  0.17130000000E+03  0.17130000000E+03 0. -1.
      622    1    1    2    0    0 -0.63997889598E-02  0.50809055012E-02  0.34687534628E+01  0.34687955199E+01  0.15000000000E-01 0.  1.
</event>
<event>
 5   0  0.2306700E+09  0.9118800E+02  0.7818608E-02  0.1180000E+00
       11   -1    0    0    0    0  0.00000000000E+00  0.00000000000E+00  0.39999999673E+01  0.40000000000E+01  0.51109989000E-03 0.  1.
     -623   -1    0    0    0    0  0.00000000000E+00  0.00000000000E+00  0.12525980253E-10  0.17130000000E+03  0.17130000000E+03 0.  1.
       11    1    1    2    0    0 -0.21962713533E-03 -0.30770441209E-02  0.32886474605E-01  0.33034797891E-01  0.51109989000E-03 0.  1.
     -623    1    1    2    0    0 -0.16985949972E-02 -0.16188938193E-02  0.17990935797E-03  0.17130000002E+03  0.17130000000E+03 0.  1.
      622    1    1    2    0    0  0.19182221323E-02  0.46959379399E-02  0.39669335827E+01  0.39669651852E+01  0.15000000000E-01 0.  1.
</event>
<event>
 5   0  0.2306700E+09  0.9118800E+02  0.7818608E-02  0.1180000E+00
       11   -1    0    0    0    0  0.00000000000E+00  0.00000000000E+00  0.39999999673E+01  0.40000000000E+01  0.51109989000E-03 0. -1.
     -623   -1    0    0    0    0  0.00000000000E+00  0.00000000000E+00  0.12525980253E-10  0.17130000000E+03  0.17130000000E+03 0.  1.
       11    1    1    2    0    0  0.90996617306E-03 -0.63291959963E-03  0.89440309096E-02  0.90269340125E-02  0.51109989000E-03 0. -1.
     -623    1    1    2    0    0 -0.38652200058E-04 -0.13682349831E-02  0.11166150868E-03  0.17130000001E+03  0.17130000000E+03 0.  1.
      622    1    1    2    0    0 -0.87131397301E-03  0.20011545825E-02  0.39909442743E+01  0.39909730598E+01  0.15000000000E-01 0. -1.
</event>
<event>
 5   0  0.2306700E+09  0.9118800E+02  0.7818608E-02  0.1180000E+00
       11   -1    0    0    0    0  0.00000000000E+00  0.00000000000E+00  0.39999999673E+01  0.40000000000E+01  0.51109989000E-03 0. -1.
     -623   -1    0    0    0    0  0.00000000000E+00  0.00000000000E+00  0.12525980253E-10  0.17130000000E+03  0.17130000000E+03 0.  1.
       11    1    1    2    0    0  0.27747174929E-02 -0.17362659116E-02  0.59101961214E+00  0.59102889679E+00  0.51109989000E-03 0. -1.
     -623    1    1    2    0    0  0.69266928389E-05  0.74429880580E-04  0.43793301762E-04  0.17130000000E+03  0.17130000000E+03 0.  1.
      622    1    1    2    0    0 -0.27816441857E-02  0.16618360310E-02  0.34089365619E+01  0.34089711032E+01  0.15000000000E-01 0. -1.
</event>
<event>
 5   0  0.2306700E+09  0.9118800E+02  0.7818608E-02  0.1180000E+00
       11   -1    0    0    0    0  0.00000000000E+00  0.00000000000E+00  0.39999999673E+01  0.40000000000E+01  0.51109989000E-03 0.  1.
     -623   -1    0    0    0    0  0.00000000000E+00  0.00000000000E+00  0.12525980253E-10  0.17130000000E+03  0.17130000000E+03 0.  1.
       11    1    1    2    0    0 -0.27654397380E-03  0.50070880935E-04  0.15965140851E-01  0.15975791973E-01  0.51109989000E-03 0.  1.
     -623    1    1    2    0    0 -0.12988399960E-04 -0.40108416076E-04  0.38866904595E-04  0.17130000000E+03  0.17130000000E+03 0.  1.
      622    1    1    2    0    0  0.28953237376E-03 -0.99624648730E-05  0.39839959582E+01  0.39840242067E+01  0.15000000000E-01 0.  1.
</event>
<event>
 5   0  0.2306700E+09  0.9118800E+02  0.7818608E-02  0.1180000E+00
       11   -1    0    0    0    0  0.00000000000E+00  0.00000000000E+00  0.39999999673E+01  0.40000000000E+01  0.51109989000E-03 0. -1.
     -623   -1    0    0    0    0  0.00000000000E+00  0.00000000000E+00  0.12525980253E-10  0.17130000000E+03  0.17130000000E+03 0. -1.
       11    1    1    2    0    0  0.88453947728E-03  0.22955575317E-03  0.14286027182E+00  0.14286410883E+00  0.51109989000E-03 0. -1.
     -623    1    1    2    0    0 -0.10384732262E-02 -0.38481797609E-03  0.32980985278E-04  0.17130000000E+03  0.17130000000E+03 0. -1.
      622    1    1    2    0    0  0.15393375016E-03  0.15526222336E-03  0.38571067192E+01  0.38571358922E+01  0.15000000000E-01 0. -1.
</event>
<event>
 5   0  0.2306700E+09  0.9118800E+02  0.7818608E-02  0.1180000E+00
       11   -1    0    0    0    0  0.00000000000E+00  0.00000000000E+00  0.39999999673E+01  0.40000000000E+01  0.51109989000E-03 0. -1.
     -623   -1    0    0    0    0  0.00000000000E+00  0.00000000000E+00  0.12525980253E-10  0.17130000000E+03  0.17130000000E+03 0.  1.
       11    1    1    2    0    0  0.13370233022E-02 -0.19280353499E-02  0.95183415299E-01  0.95213700284E-01  0.51109989000E-03 0. -1.
     -623    1    1    2    0    0 -0.16399201910E-02 -0.80693536396E-03  0.60042570120E-04  0.17130000001E+03  0.17130000000E+03 0.  1.
      622    1    1    2    0    0  0.30289688881E-03  0.27349707138E-02  0.39047565095E+01  0.39047862900E+01  0.15000000000E-01 0. -1.
</event>
<event>
 5   0  0.2306700E+09  0.9118800E+02  0.7818608E-02  0.1180000E+00
       11   -1    0    0    0    0  0.00000000000E+00  0.00000000000E+00  0.39999999673E+01  0.40000000000E+01  0.51109989000E-03 0.  1.
     -623   -1    0    0    0    0  0.00000000000E+00  0.00000000000E+00  0.12525980253E-10  0.17130000000E+03  0.17130000000E+03 0.  1.
       11    1    1    2    0    0 -0.24205241166E-04  0.30970877724E-03  0.60222753094E-01  0.60225723065E-01  0.51109989000E-03 0.  1.
     -623    1    1    2    0    0 -0.19119756134E-03 -0.35609160165E-03  0.31499011333E-04  0.17130000000E+03  0.17130000000E+03 0.  1.
      622    1    1    2    0    0  0.21540280248E-03  0.46382824345E-04  0.39397457146E+01  0.39397742758E+01  0.15000000000E-01 0.  1.
</event>
<event>
 5   0  0.2306700E+09  0.9118800E+02  0.7818608E-02  0.1180000E+00
       11   -1    0    0    0    0  0.00000000000E+00  0.00000000000E+00  0.39999999673E+01  0.40000000000E+01  0.51109989000E-03 0.  1.
     -623   -1    0    0    0    0  0.00000000000E+00  0.00000000000E+00  0.12525980253E-10  0.17130000000E+03  0.17130000000E+03 0.  1.
       11    1    1    2    0    0  0.40456725837E-02  0.85381099278E-03  0.61177893424E+00  0.61179312032E+00  0.51109989000E-03 0.  1.
     -623    1    1    2    0    0 -0.98324979529E-04  0.45738238797E-04  0.49775856730E-04  0.17130000000E+03  0.17130000000E+03 0.  1.
      622    1    1    2    0    0 -0.39473476042E-02 -0.89954923158E-03  0.33881712573E+01  0.33882068796E+01  0.15000000000E-01 0.  0.
</event>
<event>
 5   0  0.2306700E+09  0.9118800E+02  0.7818608E-02  0.1180000E+00
       11   -1    0    0    0    0  0.00000000000E+00  0.00000000000E+00  0.39999999673E+01  0.40000000000E+01  0.51109989000E-03 0. -1.
     -623   -1    0    0    0    0  0.00000000000E+00  0.00000000000E+00  0.12525980253E-10  0.17130000000E+03  0.17130000000E+03 0. -1.
       11    1    1    2    0    0  0.79404329641E-04 -0.43021173651E-03  0.38950970877E-02  0.39527701180E-02  0.51109989000E-03 0.  1.
     -623    1    1    2    0    0 -0.18846537095E-04 -0.41390173097E-04  0.85821624756E-04  0.17130000000E+03  0.17130000000E+03 0. -1.
      622    1    1    2    0    0 -0.60557792517E-04  0.47160190967E-03  0.39960190547E+01  0.39960472360E+01  0.15000000000E-01 0. -1.
</event>
<event>
 5   0  0.2306700E+09  0.9118800E+02  0.7818608E-02  0.1180000E+00
       11   -1    0    0    0    0  0.00000000000E+00  0.00000000000E+00  0.39999999673E+01  0.40000000000E+01  0.51109989000E-03 0.  1.
     -623   -1    0    0    0    0  0.00000000000E+00  0.00000000000E+00  0.12525980253E-10  0.17130000000E+03  0.17130000000E+03 0. -1.
       11    1    1    2    0    0 -0.49557270656E-02 -0.87114231391E-03  0.25115170543E-01  0.25619350776E-01  0.51109989000E-03 0.  1.
     -623    1    1    2    0    0  0.45066957326E-03  0.95504593973E-03  0.53501228250E-03  0.17130000000E+03  0.17130000000E+03 0. -1.
      622    1    1    2    0    0  0.45050574923E-02 -0.83903625886E-04  0.39743497848E+01  0.39743806454E+01  0.15000000000E-01 0.  1.
</event>
<event>
 5   0  0.2306700E+09  0.9118800E+02  0.7818608E-02  0.1180000E+00
       11   -1    0    0    0    0  0.00000000000E+00  0.00000000000E+00  0.39999999673E+01  0.40000000000E+01  0.51109989000E-03 0. -1.
     -623   -1    0    0    0    0  0.00000000000E+00  0.00000000000E+00  0.12525980253E-10  0.17130000000E+03  0.17130000000E+03 0. -1.
       11    1    1    2    0    0  0.22319037744E-03  0.62521188171E-04  0.19841587385E-04  0.56154944366E-03  0.51109989000E-03 0. -1.
     -623    1    1    2    0    0 -0.65300817818E-03  0.74411015791E-03  0.56991251307E-03  0.17130000000E+03  0.17130000000E+03 0. -1.
      622    1    1    2    0    0  0.42981780074E-03 -0.80663134608E-03  0.39994102133E+01  0.39994384467E+01  0.15000000000E-01 0. -1.
</event>
<event>
 5   0  0.2306700E+09  0.9118800E+02  0.7818608E-02  0.1180000E+00
       11   -1    0    0    0    0  0.00000000000E+00  0.00000000000E+00  0.39999999673E+01  0.40000000000E+01  0.51109989000E-03 0.  1.
     -623   -1    0    0    0    0  0.00000000000E+00  0.00000000000E+00  0.12525980253E-10  0.17130000000E+03  0.17130000000E+03 0.  1.
       11    1    1    2    0    0 -0.93413964801E-03  0.11199697818E-02  0.15529681882E-01  0.15606382974E-01  0.51109989000E-03 0.  1.
     -623    1    1    2    0    0  0.10149448153E-02  0.10795744748E-03  0.10509682132E-03  0.17130000000E+03  0.17130000000E+03 0.  1.
      622    1    1    2    0    0 -0.80805167333E-04 -0.12279272292E-02  0.39843651887E+01  0.39843936140E+01  0.15000000000E-01 0.  1.
</event>
<event>
 5   0  0.2306700E+09  0.9118800E+02  0.7818608E-02  0.1180000E+00
       11   -1    0    0    0    0  0.00000000000E+00  0.00000000000E+00  0.39999999673E+01  0.40000000000E+01  0.51109989000E-03 0.  1.
     -623   -1    0    0    0    0  0.00000000000E+00  0.00000000000E+00  0.12525980253E-10  0.17130000000E+03  0.17130000000E+03 0.  1.
       11    1    1    2    0    0  0.77770848590E-03  0.45808218390E-03  0.40535706200E-01  0.40548974950E-01  0.51109989000E-03 0.  1.
     -623    1    1    2    0    0  0.18001496748E-03 -0.42346924210E-03  0.41765844725E-04  0.17130000000E+03  0.17130000000E+03 0.  1.
      622    1    1    2    0    0 -0.95772345339E-03 -0.34612941795E-04  0.39594224953E+01  0.39594510244E+01  0.15000000000E-01 0.  1.
</event>
<event>
 5   0  0.2306700E+09  0.9118800E+02  0.7818608E-02  0.1180000E+00
       11   -1    0    0    0    0  0.00000000000E+00  0.00000000000E+00  0.39999999673E+01  0.40000000000E+01  0.51109989000E-03 0.  1.
     -623   -1    0    0    0    0  0.00000000000E+00  0.00000000000E+00  0.12525980253E-10  0.17130000000E+03  0.17130000000E+03 0. -1.
       11    1    1    2    0    0 -0.34992564914E-03 -0.86308195432E-03  0.13534423192E-01  0.13576052175E-01  0.51109989000E-03 0.  1.
     -623    1    1    2    0    0 -0.55713105095E-04 -0.27723824141E-02  0.71518034833E-04  0.17130000002E+03  0.17130000000E+03 0. -1.
      622    1    1    2    0    0  0.40563875420E-03  0.36354643666E-02  0.39863940235E+01  0.39864239227E+01  0.15000000000E-01 0.  1.
</event>
<event>
 5   0  0.2306700E+09  0.9118800E+02  0.7818608E-02  0.1180000E+00
       11   -1    0    0    0    0  0.00000000000E+00  0.00000000000E+00  0.39999999673E+01  0.40000000000E+01  0.51109989000E-03 0. -1.
     -623   -1    0    0    0    0  0.00000000000E+00  0.00000000000E+00  0.12525980253E-10  0.17130000000E+03  0.17130000000E+03 0. -1.
       11    1    1    2    0    0  0.33738140604E-03 -0.34131218665E-03  0.14524208821E-02  0.16127832272E-02  0.51109989000E-03 0. -1.
     -623    1    1    2    0    0 -0.13847326274E-02  0.21312623804E-02  0.18902293702E-03  0.17130000002E+03  0.17130000000E+03 0. -1.
      622    1    1    2    0    0  0.10473512214E-02 -0.17899501938E-02  0.39983585237E+01  0.39983871980E+01  0.15000000000E-01 0. -1.
</event>
<event>
 5   0  0.2306700E+09  0.9118800E+02  0.7818608E-02  0.1180000E+00
       11   -1    0    0    0    0  0.00000000000E+00  0.00000000000E+00  0.39999999673E+01  0.40000000000E+01  0.51109989000E-03 0. -1.
     -623   -1    0    0    0    0  0.00000000000E+00  0.00000000000E+00  0.12525980253E-10  0.17130000000E+03  0.17130000000E+03 0. -1.
       11    1    1    2    0    0  0.19357583269E-04 -0.55856047549E-03  0.12323056228E+00  0.12323288955E+00  0.51109989000E-03 0. -1.
     -623    1    1    2    0    0  0.43759956785E-04  0.76844848741E-04  0.31344233453E-04  0.17130000000E+03  0.17130000000E+03 0. -1.
      622    1    1    2    0    0 -0.63117540148E-04  0.48171562659E-03  0.38767380694E+01  0.38767671190E+01  0.15000000000E-01 0. -1.
</event>
<event>
 5   0  0.2306700E+09  0.9118800E+02  0.7818608E-02  0.1180000E+00
       11   -1    0    0    0    0  0.00000000000E+00  0.00000000000E+00  0.39999999673E+01  0.40000000000E+01  0.51109989000E-03 0.  1.
     -623   -1    0    0    0    0  0.00000000000E+00  0.00000000000E+00  0.12525980253E-10  0.17130000000E+03  0.17130000000E+03 0. -1.
       11    1    1    2    0    0 -0.14958935122E-02 -0.12453919909E-02  0.67261784255E-01  0.67291883188E-01  0.51109989000E-03 0.  1.
     -623    1    1    2    0    0  0.22527602061E-02  0.69542838810E-04  0.58936093173E-04  0.17130000001E+03  0.17130000000E+03 0. -1.
      622    1    1    2    0    0 -0.75686669566E-03  0.11758491520E-02  0.39326792501E+01  0.39327081050E+01  0.15000000000E-01 0.  1.
</event>
<event>
 5   0  0.2306700E+09  0.9118800E+02  0.7818608E-02  0.1180000E+00
       11   -1    0    0    0    0  0.00000000000E+00  0.00000000000E+00  0.39999999673E+01  0.40000000000E+01  0.51109989000E-03 0.  1.
     -623   -1    0    0    0    0  0.00000000000E+00  0.00000000000E+00  0.12525980253E-10  0.17130000000E+03  0.17130000000E+03 0. -1.
       11    1    1    2    0    0  0.28281329860E-02 -0.19635104317E-02  0.88681597035E-01  0.88749876536E-01  0.51109989000E-03 0.  1.
     -623    1    1    2    0    0 -0.42446256066E-03  0.10336632391E-02  0.97862948483E-04  0.17130000000E+03  0.17130000000E+03 0. -1.
      622    1    1    2    0    0 -0.24036704248E-02  0.92984719142E-03  0.39112205121E+01  0.39112501245E+01  0.15000000000E-01 0.  1.
</event>
<event>
 5   0  0.2306700E+09  0.9118800E+02  0.7818608E-02  0.1180000E+00
       11   -1    0    0    0    0  0.00000000000E+00  0.00000000000E+00  0.39999999673E+01  0.40000000000E+01  0.51109989000E-03 0.  1.
     -623   -1    0    0    0    0  0.00000000000E+00  0.00000000000E+00  0.12525980253E-10  0.17130000000E+03  0.17130000000E+03 0.  1.
       11    1    1    2    0    0  0.34016160877E-02  0.59382701008E-02  0.28672460490E+00  0.28680671945E+00  0.51109989000E-03 0.  1.
     -623    1    1    2    0    0  0.62463592602E-02 -0.52292792914E-02  0.12517511170E-03  0.17130000019E+03  0.17130000000E+03 0.  1.
      622    1    1    2    0    0 -0.96479753479E-02 -0.70899080932E-03  0.37131501873E+01  0.37131930868E+01  0.15000000000E-01 0.  1.
</event>
<event>
 5   0  0.2306700E+09  0.9118800E+02  0.7818608E-02  0.1180000E+00
       11   -1    0    0    0    0  0.00000000000E+00  0.00000000000E+00  0.39999999673E+01  0.40000000000E+01  0.51109989000E-03 0.  1.
     -623   -1    0    0    0    0  0.00000000000E+00  0.00000000000E+00  0.12525980253E-10  0.17130000000E+03  0.17130000000E+03 0.  1.
       11    1    1    2    0    0 -0.19814418501E-02 -0.13697234748E-05  0.62979566858E+00  0.62979899293E+00  0.51109989000E-03 0.  1.
     -623    1    1    2    0    0  0.13085375021E-04 -0.38658710709E-04  0.37247733097E-04  0.17130000000E+03  0.17130000000E+03 0.  1.
      622    1    1    2    0    0  0.19683564751E-02  0.40028434184E-04  0.33701670510E+01  0.33702010071E+01  0.15000000000E-01 0.  1.
</event>
<event>
 5   0  0.2306700E+09  0.9118800E+02  0.7818608E-02  0.1180000E+00
       11   -1    0    0    0    0  0.00000000000E+00  0.00000000000E+00  0.39999999673E+01  0.40000000000E+01  0.51109989000E-03 0.  1.
     -623   -1    0    0    0    0  0.00000000000E+00  0.00000000000E+00  0.12525980253E-10  0.17130000000E+03  0.17130000000E+03 0. -1.
       11    1    1    2    0    0 -0.28399201204E-03 -0.63162600098E-03  0.66202609750E-02  0.66759779316E-02  0.51109989000E-03 0.  1.
     -623    1    1    2    0    0  0.30574060612E-03  0.43172181385E-03  0.83862334912E-04  0.17130000000E+03  0.17130000000E+03 0. -1.
      622    1    1    2    0    0 -0.21748594309E-04  0.19990418680E-03  0.39932958471E+01  0.39933240243E+01  0.15000000000E-01 0.  1.
</event>
<event>
 5   0  0.2306700E+09  0.9118800E+02  0.7818608E-02  0.1180000E+00
       11   -1    0    0    0    0  0.00000000000E+00  0.00000000000E+00  0.39999999673E+01  0.40000000000E+01  0.51109989000E-03 0. -1.
     -623   -1    0    0    0    0  0.00000000000E+00  0.00000000000E+00  0.12525980253E-10  0.17130000000E+03  0.17130000000E+03 0.  1.
       11    1    1    2    0    0  0.27317614940E-03  0.79263736634E-04  0.23896264359E-01  0.23903421931E-01  0.51109989000E-03 0. -1.
     -623    1    1    2    0    0 -0.38752758545E-04 -0.72456398158E-03  0.35479929269E-04  0.17130000000E+03  0.17130000000E+03 0.  1.
      622    1    1    2    0    0 -0.23442339085E-03  0.64530024495E-03  0.39760682231E+01  0.39760965765E+01  0.15000000000E-01 0. -1.
</event>
<event>
 5   0  0.2306700E+09  0.9118800E+02  0.7818608E-02  0.1180000E+00
       11   -1    0    0    0    0  0.00000000000E+00  0.00000000000E+00  0.39999999673E+01  0.40000000000E+01  0.51109989000E-03 0. -1.
     -623   -1    0    0    0    0  0.00000000000E+00  0.00000000000E+00  0.12525980253E-10  0.17130000000E+03  0.17130000000E+03 0. -1.
       11    1    1    2    0    0 -0.71581737922E-03 -0.29005324251E-02  0.17946069397E-01  0.18200222804E-01  0.51109989000E-03 0. -1.
     -623    1    1    2    0    0 -0.31946540078E-03  0.60110861025E-03  0.28317454311E-03  0.17130000000E+03  0.17130000000E+03 0. -1.
      622    1    1    2    0    0  0.10352827800E-02  0.22994238148E-02  0.39817707234E+01  0.39817997756E+01  0.15000000000E-01 0. -1.
</event>
<event>
 5   0  0.2306700E+09  0.9118800E+02  0.7818608E-02  0.1180000E+00
       11   -1    0    0    0    0  0.00000000000E+00  0.00000000000E+00  0.39999999673E+01  0.40000000000E+01  0.51109989000E-03 0. -1.
     -623   -1    0    0    0    0  0.00000000000E+00  0.00000000000E+00  0.12525980253E-10  0.17130000000E+03  0.17130000000E+03 0. -1.
       11    1    1    2    0    0  0.48888056281E-04  0.22398910496E-02  0.10400510360E+00  0.10403048736E+00  0.51109989000E-03 0. -1.
     -623    1    1    2    0    0 -0.24651531072E-03 -0.13940173719E-03  0.54798713419E-04  0.17130000000E+03  0.17130000000E+03 0. -1.
      622    1    1    2    0    0  0.19762725478E-03 -0.21004893122E-02  0.38959400707E+01  0.38959695181E+01  0.15000000000E-01 0. -1.
</event>
<event>
 5   0  0.2306700E+09  0.9118800E+02  0.7818608E-02  0.1180000E+00
       11   -1    0    0    0    0  0.00000000000E+00  0.00000000000E+00  0.39999999673E+01  0.40000000000E+01  0.51109989000E-03 0. -1.
     -623   -1    0    0    0    0  0.00000000000E+00  0.00000000000E+00  0.12525980253E-10  0.17130000000E+03  0.17130000000E+03 0. -1.
       11    1    1    2    0    0  0.20305708823E-02  0.76069841554E-03  0.15673374991E-01  0.15830912296E-01  0.51109989000E-03 0. -1.
     -623    1    1    2    0    0  0.66743336940E-03 -0.86520194538E-04  0.18671350801E-03  0.17130000000E+03  0.17130000000E+03 0. -1.
      622    1    1    2    0    0 -0.26980042517E-02 -0.67417822100E-03  0.39841398789E+01  0.39841690863E+01  0.15000000000E-01 0. -1.
</event>
<event>
 5   0  0.2306700E+09  0.9118800E+02  0.7818608E-02  0.1180000E+00
       11   -1    0    0    0    0  0.00000000000E+00  0.00000000000E+00  0.39999999673E+01  0.40000000000E+01  0.51109989000E-03 0.  1.
     -623   -1    0    0    0    0  0.00000000000E+00  0.00000000000E+00  0.12525980253E-10  0.17130000000E+03  0.17130000000E+03 0. -1.
       11    1    1    2    0    0 -0.94156515058E-03 -0.52688790445E-03  0.55789484379E-02  0.57052645161E-02  0.51109989000E-03 0.  1.
     -623    1    1    2    0    0 -0.43310718565E-03  0.33918236274E-03  0.15469062817E-03  0.17130000000E+03  0.17130000000E+03 0. -1.
      622    1    1    2    0    0  0.13746723362E-02  0.18770554171E-03  0.39942663283E+01  0.39942947345E+01  0.15000000000E-01 0.  1.
</event>
<event>
 5   0  0.2306700E+09  0.9118800E+02  0.7818608E-02  0.1180000E+00
       11   -1    0    0    0    0  0.00000000000E+00  0.00000000000E+00  0.39999999673E+01  0.40000000000E+01  0.51109989000E-03 0.  1.
     -623   -1    0    0    0    0  0.00000000000E+00  0.00000000000E+00  0.12525980253E-10  0.17130000000E+03  0.17130000000E+03 0. -1.
       11    1    1    2    0    0 -0.36030957270E-02 -0.59785974037E-03  0.41942234235E+00  0.41943855595E+00  0.51109989000E-03 0.  1.
     -623    1    1    2    0    0  0.18384885680E-03 -0.20087025550E-03  0.49322679683E-04  0.17130000000E+03  0.17130000000E+03 0. -1.
      622    1    1    2    0    0  0.34192468702E-02  0.79872999588E-03  0.35805283023E+01  0.35805614438E+01  0.15000000000E-01 0.  0.
</event>
<event>
 5   0  0.2306700E+09  0.9118800E+02  0.7818608E-02  0.1180000E+00
       11   -1    0    0    0    0  0.00000000000E+00  0.00000000000E+00  0.39999999673E+01  0.40000000000E+01  0.51109989000E-03 0. -1.
     -623   -1    0    0    0    0  0.00000000000E+00  0.00000000000E+00  0.12525980253E-10  0.17130000000E+03  0.17130000000E+03 0.  1.
       11    1    1    2    0    0 -0.21717174379E-02 -0.59262719464E-03  0.25893038289E-01  0.25995734622E-01  0.51109989000E-03 0. -1.
     -623    1    1    2    0    0  0.25528796845E-03  0.21767371277E-03  0.13145293409E-03  0.17130000000E+03  0.17130000000E+03 0.  1.
      622    1    1    2    0    0  0.19164294692E-02  0.37495348172E-03  0.39739754790E+01  0.39740042679E+01  0.15000000000E-01 0. -1.
</event>
<event>
 5   0  0.2306700E+09  0.9118800E+02  0.7818608E-02  0.1180000E+00
       11   -1    0    0    0    0  0.00000000000E+00  0.00000000000E+00  0.39999999673E+01  0.40000000000E+01  0.51109989000E-03 0. -1.
     -623   -1    0    0    0    0  0.00000000000E+00  0.00000000000E+00  0.12525980253E-10  0.17130000000E+03  0.17130000000E+03 0. -1.
       11    1    1    2    0    0 -0.54057667107E-03  0.12631107589E-02  0.31529041315E+00  0.31529382093E+00  0.51109989000E-03 0. -1.
     -623    1    1    2    0    0  0.29649745224E-03 -0.12406970492E-03  0.34091318105E-04  0.17130000000E+03  0.17130000000E+03 0. -1.
      622    1    1    2    0    0  0.24407921883E-03 -0.11390410540E-02  0.36846754629E+01  0.36847061788E+01  0.15000000000E-01 0. -1.
</event>
<event>
 5   0  0.2306700E+09  0.9118800E+02  0.7818608E-02  0.1180000E+00
       11   -1    0    0    0    0  0.00000000000E+00  0.00000000000E+00  0.39999999673E+01  0.40000000000E+01  0.51109989000E-03 0.  1.
     -623   -1    0    0    0    0  0.00000000000E+00  0.00000000000E+00  0.12525980253E-10  0.17130000000E+03  0.17130000000E+03 0.  1.
       11    1    1    2    0    0  0.51736399725E-03  0.16109339894E-02  0.42663234377E-01  0.42699830965E-01  0.51109989000E-03 0.  1.
     -623    1    1    2    0    0  0.51412824283E-04 -0.23576123209E-04  0.65351783314E-04  0.17130000000E+03  0.17130000000E+03 0.  1.
      622    1    1    2    0    0 -0.56877682156E-03 -0.15873578662E-02  0.39572713828E+01  0.39573001706E+01  0.15000000000E-01 0.  1.
</event>
<event>
 5   0  0.2306700E+09  0.9118800E+02  0.7818608E-02  0.1180000E+00
       11   -1    0    0    0    0  0.00000000000E+00  0.00000000000E+00  0.39999999673E+01  0.40000000000E+01  0.51109989000E-03 0. -1.
     -623   -1    0    0    0    0  0.00000000000E+00  0.00000000000E+00  0.12525980253E-10  0.17130000000E+03  0.17130000000E+03 0.  1.
       11    1    1    2    0    0  0.13423612352E-04 -0.40810473124E-03  0.60099056488E-02  0.60454047565E-02  0.51109989000E-03 0. -1.
     -623    1    1    2    0    0 -0.11629245037E-03  0.50654476693E-03  0.63637476299E-04  0.17130000000E+03  0.17130000000E+03 0.  1.
      622    1    1    2    0    0  0.10286883785E-03 -0.98440034967E-04  0.39939264185E+01  0.39939545887E+01  0.15000000000E-01 0. -1.
</event>
<event>
 5   0  0.2306700E+09  0.9118800E+02  0.7818608E-02  0.1180000E+00
       11   -1    0    0    0    0  0.00000000000E+00  0.00000000000E+00  0.39999999673E+01  0.40000000000E+01  0.51109989000E-03 0. -1.
     -623   -1    0    0    0    0  0.00000000000E+00  0.00000000000E+00  0.12525980253E-10  0.17130000000E+03  0.17130000000E+03 0. -1.
       11    1    1    2    0    0 -0.19825678809E-02 -0.58314880925E-02  0.53243485878E-01  0.53600996610E-01  0.51109989000E-03 0. -1.
     -623    1    1    2    0    0  0.41566746745E-02  0.30571830413E-02  0.38763739018E-03  0.17130000008E+03  0.17130000000E+03 0. -1.
      622    1    1    2    0    0 -0.21741067936E-02  0.27743050512E-02  0.39463688441E+01  0.39463989252E+01  0.15000000000E-01 0. -1.
</event>
<event>
 5   0  0.2306700E+09  0.9118800E+02  0.7818608E-02  0.1180000E+00
       11   -1    0    0    0    0  0.00000000000E+00  0.00000000000E+00  0.39999999673E+01  0.40000000000E+01  0.51109989000E-03 0. -1.
     -623   -1    0    0    0    0  0.00000000000E+00  0.00000000000E+00  0.12525980253E-10  0.17130000000E+03  0.17130000000E+03 0. -1.
       11    1    1    2    0    0  0.61060476036E-03 -0.62628473762E-02  0.74170240836E-01  0.74438443984E-01  0.51109989000E-03 0. -1.
     -623    1    1    2    0    0 -0.53283899923E-02  0.12920941983E-01  0.30588075770E-03  0.17130000057E+03  0.17130000000E+03 0. -1.
      622    1    1    2    0    0  0.47177852319E-02 -0.66580946069E-02  0.39255238458E+01  0.39255609856E+01  0.15000000000E-01 0. -1.
</event>
<event>
 5   0  0.2306700E+09  0.9118800E+02  0.7818608E-02  0.1180000E+00
       11   -1    0    0    0    0  0.00000000000E+00  0.00000000000E+00  0.39999999673E+01  0.40000000000E+01  0.51109989000E-03 0. -1.
     -623   -1    0    0    0    0  0.00000000000E+00  0.00000000000E+00  0.12525980253E-10  0.17130000000E+03  0.17130000000E+03 0. -1.
       11    1    1    2    0    0 -0.13656502864E-02 -0.16315746183E-01  0.42216995613E+00  0.42248763491E+00  0.51109989000E-03 0. -1.
     -623    1    1    2    0    0  0.71822624232E-02  0.73733945804E-02  0.36530725485E-03  0.17130000031E+03  0.17130000000E+03 0. -1.
      622    1    1    2    0    0 -0.58166121367E-02  0.89423516028E-02  0.35774647040E+01  0.35775120554E+01  0.15000000000E-01 0. -1.
</event>
<event>
 5   0  0.2306700E+09  0.9118800E+02  0.7818608E-02  0.1180000E+00
       11   -1    0    0    0    0  0.00000000000E+00  0.00000000000E+00  0.39999999673E+01  0.40000000000E+01  0.51109989000E-03 0. -1.
     -623   -1    0    0    0    0  0.00000000000E+00  0.00000000000E+00  0.12525980253E-10  0.17130000000E+03  0.17130000000E+03 0.  1.
       11    1    1    2    0    0 -0.27216265871E-03  0.42062612723E-03  0.20748684681E-01  0.20761024492E-01  0.51109989000E-03 0. -1.
     -623    1    1    2    0    0 -0.12070331783E-03  0.38945337991E-04  0.40624992473E-04  0.17130000000E+03  0.17130000000E+03 0.  1.
      622    1    1    2    0    0  0.39286597689E-03 -0.45957146534E-03  0.39792106694E+01  0.39792389871E+01  0.15000000000E-01 0. -1.
</event>
<event>
 5   0  0.2306700E+09  0.9118800E+02  0.7818608E-02  0.1180000E+00
       11   -1    0    0    0    0  0.00000000000E+00  0.00000000000E+00  0.39999999673E+01  0.40000000000E+01  0.51109989000E-03 0.  1.
     -623   -1    0    0    0    0  0.00000000000E+00  0.00000000000E+00  0.12525980253E-10  0.17130000000E+03  0.17130000000E+03 0. -1.
       11    1    1    2    0    0  0.52445530790E-03 -0.45034728578E-03  0.43905307872E-02  0.44739076587E-02  0.51109989000E-03 0. -1.
     -623    1    1    2    0    0 -0.98631307046E-03  0.26372266957E-02  0.11214917293E-03  0.17130000002E+03  0.17130000000E+03 0. -1.
      622    1    1    2    0    0  0.46185776213E-03 -0.21868794088E-02  0.39954972857E+01  0.39955260674E+01  0.15000000000E-01 0.  1.
</event>
<event>
 5   0  0.2306700E+09  0.9118800E+02  0.7818608E-02  0.1180000E+00
       11   -1    0    0    0    0  0.00000000000E+00  0.00000000000E+00  0.39999999673E+01  0.40000000000E+01  0.51109989000E-03 0. -1.
     -623   -1    0    0    0    0  0.00000000000E+00  0.00000000000E+00  0.12525980253E-10  0.17130000000E+03  0.17130000000E+03 0. -1.
       11    1    1    2    0    0  0.40875927719E-02  0.84554945878E-02  0.15344809558E+00  0.15373608250E+00  0.51109989000E-03 0. -1.
     -623    1    1    2    0    0 -0.43473285989E-02  0.15694672983E-02  0.33033972779E-03  0.17130000006E+03  0.17130000000E+03 0. -1.
      622    1    1    2    0    0  0.25973582699E-03 -0.10024961886E-01  0.38462215321E+01  0.38462638548E+01  0.15000000000E-01 0. -1.
</event>
<event>
 5   0  0.2306700E+09  0.9118800E+02  0.7818608E-02  0.1180000E+00
       11   -1    0    0    0    0  0.00000000000E+00  0.00000000000E+00  0.39999999673E+01  0.40000000000E+01  0.51109989000E-03 0.  1.
     -623   -1    0    0    0    0  0.00000000000E+00  0.00000000000E+00  0.12525980253E-10  0.17130000000E+03  0.17130000000E+03 0.  1.
       11    1    1    2    0    0  0.87581923696E-02  0.23867203399E-02  0.22995890115E+00  0.23013856654E+00  0.51109989000E-03 0.  1.
     -623    1    1    2    0    0 -0.14412635716E-02 -0.13840977279E-02  0.21672071486E-03  0.17130000001E+03  0.17130000000E+03 0.  1.
      622    1    1    2    0    0 -0.73169287978E-02 -0.10026226118E-02  0.37698243461E+01  0.37698614223E+01  0.15000000000E-01 0.  1.
</event>
<event>
 5   0  0.2306700E+09  0.9118800E+02  0.7818608E-02  0.1180000E+00
       11   -1    0    0    0    0  0.00000000000E+00  0.00000000000E+00  0.39999999673E+01  0.40000000000E+01  0.51109989000E-03 0.  1.
     -623   -1    0    0    0    0  0.00000000000E+00  0.00000000000E+00  0.12525980253E-10  0.17130000000E+03  0.17130000000E+03 0.  1.
       11    1    1    2    0    0 -0.65353843162E-02 -0.15668531725E-01  0.89631756579E+00  0.89647847386E+00  0.51109989000E-03 0.  1.
     -623    1    1    2    0    0 -0.26095241284E-03  0.46242219713E-02  0.22428091250E-03  0.17130000006E+03  0.17130000000E+03 0.  1.
      622    1    1    2    0    0  0.67963367291E-02  0.11044309754E-01  0.31034581207E+01  0.31035214634E+01  0.15000000000E-01 0.  1.
</event>
<event>
 5   0  0.2306700E+09  0.9118800E+02  0.7818608E-02  0.1180000E+00
       11   -1    0    0    0    0  0.00000000000E+00  0.00000000000E+00  0.39999999673E+01  0.40000000000E+01  0.51109989000E-03 0. -1.
     -623   -1    0    0    0    0  0.00000000000E+00  0.00000000000E+00  0.12525980253E-10  0.17130000000E+03  0.17130000000E+03 0. -1.
       11    1    1    2    0    0  0.30318575936E-02  0.10024053952E-02  0.58762182844E-01  0.58851103066E-01  0.51109989000E-03 0. -1.
     -623    1    1    2    0    0  0.16013621794E-03 -0.40079390179E-03  0.11877179460E-03  0.17130000000E+03  0.17130000000E+03 0. -1.
      622    1    1    2    0    0 -0.31919938115E-02 -0.60161149339E-03  0.39411190127E+01  0.39411488963E+01  0.15000000000E-01 0. -1.
</event>
<event>
 5   0  0.2306700E+09  0.9118800E+02  0.7818608E-02  0.1180000E+00
       11   -1    0    0    0    0  0.00000000000E+00  0.00000000000E+00  0.39999999673E+01  0.40000000000E+01  0.51109989000E-03 0. -1.
     -623   -1    0    0    0    0  0.00000000000E+00  0.00000000000E+00  0.12525980253E-10  0.17130000000E+03  0.17130000000E+03 0.  1.
       11    1    1    2    0    0 -0.59623387861E-02 -0.59812029117E-02  0.11567812768E+01  0.11568122181E+01  0.51109989000E-03 0. -1.
     -623    1    1    2    0    0 -0.75758669512E-03  0.25134670452E-02  0.80553518517E-04  0.17130000002E+03  0.17130000000E+03 0.  1.
      622    1    1    2    0    0  0.67199254814E-02  0.34677358662E-02  0.28431381376E+01  0.28431877623E+01  0.15000000000E-01 0. -1.
</event>
<event>
 5   0  0.2306700E+09  0.9118800E+02  0.7818608E-02  0.1180000E+00
       11   -1    0    0    0    0  0.00000000000E+00  0.00000000000E+00  0.39999999673E+01  0.40000000000E+01  0.51109989000E-03 0.  1.
     -623   -1    0    0    0    0  0.00000000000E+00  0.00000000000E+00  0.12525980253E-10  0.17130000000E+03  0.17130000000E+03 0.  1.
       11    1    1    2    0    0  0.53552825198E-03 -0.67082664152E-03  0.15864067654E+00  0.15864382204E+00  0.51109989000E-03 0.  1.
     -623    1    1    2    0    0  0.24830280831E-04 -0.55054522765E-04  0.32508975846E-04  0.17130000000E+03  0.17130000000E+03 0.  1.
      622    1    1    2    0    0 -0.56035853281E-03  0.72588116429E-03  0.38413267818E+01  0.38413561779E+01  0.15000000000E-01 0.  1.
</event>
<event>
 5   0  0.2306700E+09  0.9118800E+02  0.7818608E-02  0.1180000E+00
       11   -1    0    0    0    0  0.00000000000E+00  0.00000000000E+00  0.39999999673E+01  0.40000000000E+01  0.51109989000E-03 0.  1.
     -623   -1    0    0    0    0  0.00000000000E+00  0.00000000000E+00  0.12525980253E-10  0.17130000000E+03  0.17130000000E+03 0. -1.
       11    1    1    2    0    0  0.21606850056E-02  0.21672566143E-02  0.10939031557E+01  0.10939075559E+01  0.51109989000E-03 0.  1.
     -623    1    1    2    0    0 -0.15199874378E-02 -0.83226154239E-04  0.43904245894E-04  0.17130000001E+03  0.17130000000E+03 0. -1.
      622    1    1    2    0    0 -0.64069756523E-03 -0.20840304599E-02  0.29060529140E+01  0.29060924439E+01  0.15000000000E-01 0.  1.
</event>
<event>
 5   0  0.2306700E+09  0.9118800E+02  0.7818608E-02  0.1180000E+00
       11   -1    0    0    0    0  0.00000000000E+00  0.00000000000E+00  0.39999999673E+01  0.40000000000E+01  0.51109989000E-03 0. -1.
     -623   -1    0    0    0    0  0.00000000000E+00  0.00000000000E+00  0.12525980253E-10  0.17130000000E+03  0.17130000000E+03 0. -1.
       11    1    1    2    0    0 -0.32215625336E-03 -0.14520579747E-02  0.10059477966E-01  0.10181678499E-01  0.51109989000E-03 0.  1.
     -623    1    1    2    0    0 -0.28986841538E-02  0.30433765631E-02  0.15203378538E-03  0.17130000005E+03  0.17130000000E+03 0. -1.
      622    1    1    2    0    0  0.32208404078E-02 -0.15913185891E-02  0.39897884564E+01  0.39898182707E+01  0.15000000000E-01 0. -1.
</event>
<event>
 5   0  0.2306700E+09  0.9118800E+02  0.7818608E-02  0.1180000E+00
       11   -1    0    0    0    0  0.00000000000E+00  0.00000000000E+00  0.39999999673E+01  0.40000000000E+01  0.51109989000E-03 0. -1.
     -623   -1    0    0    0    0  0.00000000000E+00  0.00000000000E+00  0.12525980253E-10  0.17130000000E+03  0.17130000000E+03 0. -1.
       11    1    1    2    0    0  0.37355225161E-02  0.22936667696E-02  0.12303699587E+00  0.12311611840E+00  0.51109989000E-03 0. -1.
     -623    1    1    2    0    0 -0.22661778219E-03  0.35737450929E-03  0.11060305516E-03  0.17130000000E+03  0.17130000000E+03 0. -1.
      622    1    1    2    0    0 -0.35089047339E-02 -0.26510412789E-02  0.38768523684E+01  0.38768838810E+01  0.15000000000E-01 0. -1.
</event>
<event>
 5   0  0.2306700E+09  0.9118800E+02  0.7818608E-02  0.1180000E+00
       11   -1    0    0    0    0  0.00000000000E+00  0.00000000000E+00  0.39999999673E+01  0.40000000000E+01  0.51109989000E-03 0.  1.
     -623   -1    0    0    0    0  0.00000000000E+00  0.00000000000E+00  0.12525980253E-10  0.17130000000E+03  0.17130000000E+03 0. -1.
       11    1    1    2    0    0  0.24095715632E-01  0.43301076460E-01  0.65632998694E+00  0.65819822220E+00  0.51109989000E-03 0.  1.
     -623    1    1    2    0    0  0.39735238399E-02  0.52960312248E-02  0.23732866315E-02  0.17130000014E+03  0.17130000000E+03 0. -1.
      622    1    1    2    0    0 -0.28069239471E-01 -0.48597107685E-01  0.33412966939E+01  0.33418016335E+01  0.15000000000E-01 0.  1.
</event>
<event>
 5   0  0.2306700E+09  0.9118800E+02  0.7818608E-02  0.1180000E+00
       11   -1    0    0    0    0  0.00000000000E+00  0.00000000000E+00  0.39999999673E+01  0.40000000000E+01  0.51109989000E-03 0. -1.
     -623   -1    0    0    0    0  0.00000000000E+00  0.00000000000E+00  0.12525980253E-10  0.17130000000E+03  0.17130000000E+03 0.  1.
       11    1    1    2    0    0 -0.10830396790E-02  0.59067960661E-03  0.48487567470E+00  0.48487751342E+00  0.51109989000E-03 0. -1.
     -623    1    1    2    0    0  0.49199168813E-03 -0.11194191854E-02  0.33904620969E-04  0.17130000000E+03  0.17130000000E+03 0.  1.
      622    1    1    2    0    0  0.59104798978E-03  0.52873958124E-03  0.35150903966E+01  0.35151224908E+01  0.15000000000E-01 0. -1.
</event>
<event>
 5   0  0.2306700E+09  0.9118800E+02  0.7818608E-02  0.1180000E+00
       11   -1    0    0    0    0  0.00000000000E+00  0.00000000000E+00  0.39999999673E+01  0.40000000000E+01  0.51109989000E-03 0.  1.
     -623   -1    0    0    0    0  0.00000000000E+00  0.00000000000E+00  0.12525980253E-10  0.17130000000E+03  0.17130000000E+03 0. -1.
       11    1    1    2    0    0 -0.76732219882E-03 -0.11324819414E-02  0.11981855027E-02  0.18889601110E-02  0.51109989000E-03 0.  1.
     -623    1    1    2    0    0 -0.19187872218E-03  0.83512437010E-03  0.71901012863E-03  0.17130000000E+03  0.17130000000E+03 0. -1.
      622    1    1    2    0    0  0.95920092103E-03  0.29735757111E-03  0.39980827724E+01  0.39981110369E+01  0.15000000000E-01 0.  1.
</event>
<event>
 5   0  0.2306700E+09  0.9118800E+02  0.7818608E-02  0.1180000E+00
       11   -1    0    0    0    0  0.00000000000E+00  0.00000000000E+00  0.39999999673E+01  0.40000000000E+01  0.51109989000E-03 0. -1.
     -623   -1    0    0    0    0  0.00000000000E+00  0.00000000000E+00  0.12525980253E-10  0.17130000000E+03  0.17130000000E+03 0.  1.
       11    1    1    2    0    0 -0.17932102209E-02  0.16564963430E-02  0.60498613926E-02  0.65438237292E-02  0.51109989000E-03 0. -1.
     -623    1    1    2    0    0  0.43951380949E-03  0.58056847172E-03  0.52295925402E-03  0.17130000000E+03  0.17130000000E+03 0.  1.
      622    1    1    2    0    0  0.13536964114E-02 -0.22370648148E-02  0.39934271469E+01  0.39934561741E+01  0.15000000000E-01 0. -1.
</event>
<event>
 5   0  0.2306700E+09  0.9118800E+02  0.7818608E-02  0.1180000E+00
       11   -1    0    0    0    0  0.00000000000E+00  0.00000000000E+00  0.39999999673E+01  0.40000000000E+01  0.51109989000E-03 0.  1.
     -623   -1    0    0    0    0  0.00000000000E+00  0.00000000000E+00  0.12525980253E-10  0.17130000000E+03  0.17130000000E+03 0.  1.
       11    1    1    2    0    0  0.16005465484E-03 -0.37249524813E-03  0.27483032870E-01  0.27490774610E-01  0.51109989000E-03 0.  1.
     -623    1    1    2    0    0 -0.12856265315E-03 -0.16262214310E-03  0.36065128195E-04  0.17130000000E+03  0.17130000000E+03 0.  1.
      622    1    1    2    0    0 -0.31492001693E-04  0.53511739123E-03  0.39724808694E+01  0.39725092253E+01  0.15000000000E-01 0.  1.
</event>
<event>
 5   0  0.2306700E+09  0.9118800E+02  0.7818608E-02  0.1180000E+00
       11   -1    0    0    0    0  0.00000000000E+00  0.00000000000E+00  0.39999999673E+01  0.40000000000E+01  0.51109989000E-03 0.  1.
     -623   -1    0    0    0    0  0.00000000000E+00  0.00000000000E+00  0.12525980253E-10  0.17130000000E+03  0.17130000000E+03 0.  1.
       11    1    1    2    0    0  0.50826989802E-03 -0.25280509160E-03  0.30696377486E-02  0.31632495489E-02  0.51109989000E-03 0.  1.
     -623    1    1    2    0    0  0.21376749802E-04  0.27089113138E-03  0.12176191193E-03  0.17130000000E+03  0.17130000000E+03 0.  1.
      622    1    1    2    0    0 -0.52964664783E-03 -0.18086039813E-04  0.39968085681E+01  0.39968367506E+01  0.15000000000E-01 0.  1.
</event>
<event>
 5   0  0.2306700E+09  0.9118800E+02  0.7818608E-02  0.1180000E+00
       11   -1    0    0    0    0  0.00000000000E+00  0.00000000000E+00  0.39999999673E+01  0.40000000000E+01  0.51109989000E-03 0.  1.
     -623   -1    0    0    0    0  0.00000000000E+00  0.00000000000E+00  0.12525980253E-10  0.17130000000E+03  0.17130000000E+03 0.  1.
       11    1    1    2    0    0 -0.57033931238E-03 -0.63438039228E-03  0.10091370736E+00  0.10091860721E+00  0.51109989000E-03 0.  1.
     -623    1    1    2    0    0  0.15097354212E-02  0.12550218710E-02  0.33894082508E-04  0.17130000001E+03  0.17130000000E+03 0.  1.
      622    1    1    2    0    0 -0.93939611266E-03 -0.62064148194E-03  0.38990523760E+01  0.38990813917E+01  0.15000000000E-01 0.  1.
</event>
<event>
 5   0  0.2306700E+09  0.9118800E+02  0.7818608E-02  0.1180000E+00
       11   -1    0    0    0    0  0.00000000000E+00  0.00000000000E+00  0.39999999673E+01  0.40000000000E+01  0.51109989000E-03 0.  1.
     -623   -1    0    0    0    0  0.00000000000E+00  0.00000000000E+00  0.12525980253E-10  0.17130000000E+03  0.17130000000E+03 0.  1.
       11    1    1    2    0    0  0.12258178507E-03  0.28997605750E-02  0.41080446294E-01  0.41186016176E-01  0.51109989000E-03 0.  1.
     -623    1    1    2    0    0  0.81301940859E-03 -0.44965053562E-02  0.13444851868E-03  0.17130000006E+03  0.17130000000E+03 0.  1.
      622    1    1    2    0    0 -0.93560119366E-03  0.15967447811E-02  0.39587850725E+01  0.39588139228E+01  0.15000000000E-01 0.  1.
</event>
<event>
 5   0  0.2306700E+09  0.9118800E+02  0.7818608E-02  0.1180000E+00
       11   -1    0    0    0    0  0.00000000000E+00  0.00000000000E+00  0.39999999673E+01  0.40000000000E+01  0.51109989000E-03 0. -1.
     -623   -1    0    0    0    0  0.00000000000E+00  0.00000000000E+00  0.12525980253E-10  0.17130000000E+03  0.17130000000E+03 0.  1.
       11    1    1    2    0    0  0.72698648624E-03 -0.14020977659E-02  0.42032233003E-01  0.42064999962E-01  0.51109989000E-03 0. -1.
     -623    1    1    2    0    0  0.70134785806E-03  0.64818800691E-03  0.61490539757E-04  0.17130000000E+03  0.17130000000E+03 0.  1.
      622    1    1    2    0    0 -0.14283343451E-02  0.75390975827E-03  0.39579062484E+01  0.39579350020E+01  0.15000000000E-01 0. -1.
</event>
<event>
 5   0  0.2306700E+09  0.9118800E+02  0.7818608E-02  0.1180000E+00
       11   -1    0    0    0    0  0.00000000000E+00  0.00000000000E+00  0.39999999673E+01  0.40000000000E+01  0.51109989000E-03 0.  1.
     -623   -1    0    0    0    0  0.00000000000E+00  0.00000000000E+00  0.12525980253E-10  0.17130000000E+03  0.17130000000E+03 0. -1.
       11    1    1    2    0    0  0.54086407301E-03 -0.79229113657E-03  0.86132875442E-02  0.86816015001E-02  0.51109989000E-03 0.  1.
     -623    1    1    2    0    0  0.29898381805E-03 -0.76085645704E-04  0.96650721757E-04  0.17130000000E+03  0.17130000000E+03 0. -1.
      622    1    1    2    0    0 -0.83984789082E-03  0.86837678222E-03  0.39912900259E+01  0.39913183950E+01  0.15000000000E-01 0.  1.
</event>
<event>
 5   0  0.2306700E+09  0.9118800E+02  0.7818608E-02  0.1180000E+00
       11   -1    0    0    0    0  0.00000000000E+00  0.00000000000E+00  0.39999999673E+01  0.40000000000E+01  0.51109989000E-03 0. -1.
     -623   -1    0    0    0    0  0.00000000000E+00  0.00000000000E+00  0.12525980253E-10  0.17130000000E+03  0.17130000000E+03 0. -1.
       11    1    1    2    0    0  0.99996674937E-03 -0.18932743687E-03  0.15244319899E+00  0.15244745298E+00  0.51109989000E-03 0. -1.
     -623    1    1    2    0    0 -0.17751990325E-02 -0.76313915120E-03  0.33667721667E-04  0.17130000001E+03  0.17130000000E+03 0. -1.
      622    1    1    2    0    0  0.77523228124E-03  0.95246658726E-03  0.38475230964E+01  0.38475525319E+01  0.15000000000E-01 0. -1.
</event>
<event>
 5   0  0.2306700E+09  0.9118800E+02  0.7818608E-02  0.1180000E+00
       11   -1    0    0    0    0  0.00000000000E+00  0.00000000000E+00  0.39999999673E+01  0.40000000000E+01  0.51109989000E-03 0.  1.
     -623   -1    0    0    0    0  0.00000000000E+00  0.00000000000E+00  0.12525980253E-10  0.17130000000E+03  0.17130000000E+03 0. -1.
       11    1    1    2    0    0  0.18097020324E-03 -0.12068118433E-02  0.39879683612E-01  0.39901623190E-01  0.51109989000E-03 0.  1.
     -623    1    1    2    0    0  0.20443789367E-03  0.23936427881E-03  0.50452649425E-04  0.17130000000E+03  0.17130000000E+03 0. -1.
      622    1    1    2    0    0 -0.38540809697E-03  0.96744756444E-03  0.39600698323E+01  0.39600983777E+01  0.15000000000E-01 0.  1.
</event>
<event>
 5   0  0.2306700E+09  0.9118800E+02  0.7818608E-02  0.1180000E+00
       11   -1    0    0    0    0  0.00000000000E+00  0.00000000000E+00  0.39999999673E+01  0.40000000000E+01  0.51109989000E-03 0.  1.
     -623   -1    0    0    0    0  0.00000000000E+00  0.00000000000E+00  0.12525980253E-10  0.17130000000E+03  0.17130000000E+03 0. -1.
       11    1    1    2    0    0 -0.18220995032E-02  0.15746433110E-02  0.34453573583E+00  0.34454453128E+00  0.51109989000E-03 0.  1.
     -623    1    1    2    0    0  0.39408265091E-03  0.71606582333E-03  0.40537493631E-04  0.17130000000E+03  0.17130000000E+03 0. -1.
      622    1    1    2    0    0  0.14280168519E-02 -0.22907091349E-02  0.36554236972E+01  0.36554554699E+01  0.15000000000E-01 0.  1.
</event>
<event>
 5   0  0.2306700E+09  0.9118800E+02  0.7818608E-02  0.1180000E+00
       11   -1    0    0    0    0  0.00000000000E+00  0.00000000000E+00  0.39999999673E+01  0.40000000000E+01  0.51109989000E-03 0.  1.
     -623   -1    0    0    0    0  0.00000000000E+00  0.00000000000E+00  0.12525980253E-10  0.17130000000E+03  0.17130000000E+03 0. -1.
       11    1    1    2    0    0  0.98893115975E-02  0.18442584250E-01  0.17990512268E+00  0.18111886093E+00  0.51109989000E-03 0.  1.
     -623    1    1    2    0    0 -0.29067843204E-02 -0.29631132208E-03  0.12926916728E-02  0.17130000003E+03  0.17130000000E+03 0. -1.
      622    1    1    2    0    0 -0.69825272771E-02 -0.18146272928E-01  0.38188021530E+01  0.38188811093E+01  0.15000000000E-01 0.  1.
</event>
<event>
 5   0  0.2306700E+09  0.9118800E+02  0.7818608E-02  0.1180000E+00
       11   -1    0    0    0    0  0.00000000000E+00  0.00000000000E+00  0.39999999673E+01  0.40000000000E+01  0.51109989000E-03 0.  1.
     -623   -1    0    0    0    0  0.00000000000E+00  0.00000000000E+00  0.12525980253E-10  0.17130000000E+03  0.17130000000E+03 0. -1.
       11    1    1    2    0    0  0.23426915508E-03  0.38045967930E-02  0.10126573536E+01  0.10126646567E+01  0.51109989000E-03 0.  1.
     -623    1    1    2    0    0 -0.87452596280E-04 -0.33211528887E-04  0.47313920716E-04  0.17130000000E+03  0.17130000000E+03 0. -1.
      622    1    1    2    0    0 -0.14681655880E-03 -0.37713852641E-02  0.29872952998E+01  0.29873353433E+01  0.15000000000E-01 0.  1.
</event>
<event>
 5   0  0.2306700E+09  0.9118800E+02  0.7818608E-02  0.1180000E+00
       11   -1    0    0    0    0  0.00000000000E+00  0.00000000000E+00  0.39999999673E+01  0.40000000000E+01  0.51109989000E-03 0. -1.
     -623   -1    0    0    0    0  0.00000000000E+00  0.00000000000E+00  0.12525980253E-10  0.17130000000E+03  0.17130000000E+03 0.  1.
       11    1    1    2    0    0  0.32492724947E-03  0.51590230283E-03  0.13163952735E-01  0.13187971963E-01  0.51109989000E-03 0. -1.
     -623    1    1    2    0    0 -0.68777157120E-03 -0.90383238252E-03  0.52243881522E-04  0.17130000000E+03  0.17130000000E+03 0.  1.
      622    1    1    2    0    0  0.36284432174E-03  0.38793007969E-03  0.39867837707E+01  0.39868120243E+01  0.15000000000E-01 0. -1.
</event>
<event>
 5   0  0.2306700E+09  0.9118800E+02  0.7818608E-02  0.1180000E+00
       11   -1    0    0    0    0  0.00000000000E+00  0.00000000000E+00  0.39999999673E+01  0.40000000000E+01  0.51109989000E-03 0.  1.
     -623   -1    0    0    0    0  0.00000000000E+00  0.00000000000E+00  0.12525980253E-10  0.17130000000E+03  0.17130000000E+03 0. -1.
       11    1    1    2    0    0 -0.30290872086E-03 -0.15775149601E-01  0.15525603867E+00  0.15605654701E+00  0.51109989000E-03 0.  1.
     -623    1    1    2    0    0 -0.29525820115E-03 -0.90506735205E-03  0.86598510381E-03  0.17130000000E+03  0.17130000000E+03 0. -1.
      622    1    1    2    0    0  0.59816692200E-03  0.16680216953E-01  0.38438779436E+01  0.38439434482E+01  0.15000000000E-01 0.  1.
</event>
<event>
 5   0  0.2306700E+09  0.9118800E+02  0.7818608E-02  0.1180000E+00
       11   -1    0    0    0    0  0.00000000000E+00  0.00000000000E+00  0.39999999673E+01  0.40000000000E+01  0.51109989000E-03 0. -1.
     -623   -1    0    0    0    0  0.00000000000E+00  0.00000000000E+00  0.12525980253E-10  0.17130000000E+03  0.17130000000E+03 0.  1.
       11    1    1    2    0    0 -0.14754273984E-02 -0.82690445153E-04  0.93832225690E-02  0.95126132225E-02  0.51109989000E-03 0. -1.
     -623    1    1    2    0    0  0.20109477863E-02 -0.48138534683E-03  0.15763851188E-03  0.17130000001E+03  0.17130000000E+03 0.  1.
      622    1    1    2    0    0 -0.53552038794E-03  0.56407579198E-03  0.39904591063E+01  0.39904873742E+01  0.15000000000E-01 0. -1.
</event>
<event>
 5   0  0.2306700E+09  0.9118800E+02  0.7818608E-02  0.1180000E+00
       11   -1    0    0    0    0  0.00000000000E+00  0.00000000000E+00  0.39999999673E+01  0.40000000000E+01  0.51109989000E-03 0.  1.
     -623   -1    0    0    0    0  0.00000000000E+00  0.00000000000E+00  0.12525980253E-10  0.17130000000E+03  0.17130000000E+03 0. -1.
       11    1    1    2    0    0 -0.63393523956E-03  0.62345383659E-03  0.59441663644E-01  0.59450510245E-01  0.51109989000E-03 0.  1.
     -623    1    1    2    0    0  0.32989260388E-03 -0.15667233819E-03  0.37403152464E-04  0.17130000000E+03  0.17130000000E+03 0. -1.
      622    1    1    2    0    0  0.30404263625E-03 -0.46678149867E-03  0.39405208936E+01  0.39405494823E+01  0.15000000000E-01 0.  1.
</event>
<event>
 5   0  0.2306700E+09  0.9118800E+02  0.7818608E-02  0.1180000E+00
       11   -1    0    0    0    0  0.00000000000E+00  0.00000000000E+00  0.39999999673E+01  0.40000000000E+01  0.51109989000E-03 0. -1.
     -623   -1    0    0    0    0  0.00000000000E+00  0.00000000000E+00  0.12525980253E-10  0.17130000000E+03  0.17130000000E+03 0.  1.
       11    1    1    2    0    0  0.86112411153E-03  0.17416293592E-02  0.13698710138E-01  0.13845240646E-01  0.51109989000E-03 0. -1.
     -623    1    1    2    0    0 -0.25245976297E-02 -0.23548997090E-03  0.17537115155E-03  0.17130000002E+03  0.17130000000E+03 0.  1.
      622    1    1    2    0    0  0.16634735182E-02 -0.15061393883E-02  0.39861258861E+01  0.39861547405E+01  0.15000000000E-01 0. -1.
</event>
<event>
 5   0  0.2306700E+09  0.9118800E+02  0.7818608E-02  0.1180000E+00
       11   -1    0    0    0    0  0.00000000000E+00  0.00000000000E+00  0.39999999673E+01  0.40000000000E+01  0.51109989000E-03 0. -1.
     -623   -1    0    0    0    0  0.00000000000E+00  0.00000000000E+00  0.12525980253E-10  0.17130000000E+03  0.17130000000E+03 0.  1.
       11    1    1    2    0    0 -0.27729152280E-02  0.89716937138E-03  0.40337475931E+00  0.40338561159E+00  0.51109989000E-03 0. -1.
     -623    1    1    2    0    0 -0.10445000309E-03 -0.71773605975E-04  0.43344949211E-04  0.17130000000E+03  0.17130000000E+03 0.  1.
      622    1    1    2    0    0  0.28773652312E-02 -0.82539576533E-03  0.35965818673E+01  0.35966143925E+01  0.15000000000E-01 0. -1.
</event>
<event>
 5   0  0.2306700E+09  0.9118800E+02  0.7818608E-02  0.1180000E+00
       11   -1    0    0    0    0  0.00000000000E+00  0.00000000000E+00  0.39999999673E+01  0.40000000000E+01  0.51109989000E-03 0. -1.
     -623   -1    0    0    0    0  0.00000000000E+00  0.00000000000E+00  0.12525980253E-10  0.17130000000E+03  0.17130000000E+03 0. -1.
       11    1    1    2    0    0 -0.67190351110E-02 -0.30716913631E-02  0.66470657035E+00  0.66474782182E+00  0.51109989000E-03 0. -1.
     -623    1    1    2    0    0  0.17775785109E-02 -0.66892520013E-02  0.93033438034E-04  0.17130000014E+03  0.17130000000E+03 0. -1.
      622    1    1    2    0    0  0.49414566001E-02  0.97609433644E-02  0.33352003636E+01  0.33352520383E+01  0.15000000000E-01 0. -1.
</event>
<event>
 5   0  0.2306700E+09  0.9118800E+02  0.7818608E-02  0.1180000E+00
       11   -1    0    0    0    0  0.00000000000E+00  0.00000000000E+00  0.39999999673E+01  0.40000000000E+01  0.51109989000E-03 0.  1.
     -623   -1    0    0    0    0  0.00000000000E+00  0.00000000000E+00  0.12525980253E-10  0.17130000000E+03  0.17130000000E+03 0. -1.
       11    1    1    2    0    0  0.33605330569E-02  0.29049024985E-02  0.53119381799E+00  0.53121263646E+00  0.51109989000E-03 0.  1.
     -623    1    1    2    0    0  0.24224013064E-03 -0.84942439004E-04  0.54235509247E-04  0.17130000000E+03  0.17130000000E+03 0. -1.
      622    1    1    2    0    0 -0.36027731878E-02 -0.28199600594E-02  0.34687519183E+01  0.34687873678E+01  0.15000000000E-01 0.  1.
</event>
<event>
 5   0  0.2306700E+09  0.9118800E+02  0.7818608E-02  0.1180000E+00
       11   -1    0    0    0    0  0.00000000000E+00  0.00000000000E+00  0.39999999673E+01  0.40000000000E+01  0.51109989000E-03 0. -1.
     -623   -1    0    0    0    0  0.00000000000E+00  0.00000000000E+00  0.12525980253E-10  0.17130000000E+03  0.17130000000E+03 0. -1.
       11    1    1    2    0    0  0.59757250259E-03 -0.44248558204E-03  0.19641348920E-01  0.19662062376E-01  0.51109989000E-03 0. -1.
     -623    1    1    2    0    0 -0.63569105762E-03  0.17093113110E-03  0.48955565698E-04  0.17130000000E+03  0.17130000000E+03 0. -1.
      622    1    1    2    0    0  0.38118555590E-04  0.27155445078E-03  0.39803096664E+01  0.39803379399E+01  0.15000000000E-01 0. -1.
</event>
<event>
 5   0  0.2306700E+09  0.9118800E+02  0.7818608E-02  0.1180000E+00
       11   -1    0    0    0    0  0.00000000000E+00  0.00000000000E+00  0.39999999673E+01  0.40000000000E+01  0.51109989000E-03 0. -1.
     -623   -1    0    0    0    0  0.00000000000E+00  0.00000000000E+00  0.12525980253E-10  0.17130000000E+03  0.17130000000E+03 0.  1.
       11    1    1    2    0    0 -0.93002482153E-03 -0.51472348588E-03  0.71674524601E-02  0.72638475938E-02  0.51109989000E-03 0. -1.
     -623    1    1    2    0    0  0.84435154778E-03  0.10766768198E-02  0.12458473504E-03  0.17130000001E+03  0.17130000000E+03 0.  1.
      622    1    1    2    0    0  0.85673273750E-04 -0.56195333395E-03  0.39927079302E+01  0.39927361469E+01  0.15000000000E-01 0. -1.
</event>
<event>
 5   0  0.2306700E+09  0.9118800E+02  0.7818608E-02  0.1180000E+00
       11   -1    0    0    0    0  0.00000000000E+00  0.00000000000E+00  0.39999999673E+01  0.40000000000E+01  0.51109989000E-03 0.  1.
     -623   -1    0    0    0    0  0.00000000000E+00  0.00000000000E+00  0.12525980253E-10  0.17130000000E+03  0.17130000000E+03 0. -1.
       11    1    1    2    0    0  0.38237794675E-02  0.76474435266E-03  0.19381340475E-01  0.19776341984E-01  0.51109989000E-03 0.  1.
     -623    1    1    2    0    0 -0.55990263594E-02 -0.49296669482E-03  0.42373162693E-03  0.17130000009E+03  0.17130000000E+03 0. -1.
      622    1    1    2    0    0  0.17752468919E-02 -0.27177765783E-03  0.39801948953E+01  0.39802235653E+01  0.15000000000E-01 0.  1.
</event>
<event>
 5   0  0.2306700E+09  0.9118800E+02  0.7818608E-02  0.1180000E+00
       11   -1    0    0    0    0  0.00000000000E+00  0.00000000000E+00  0.39999999673E+01  0.40000000000E+01  0.51109989000E-03 0. -1.
     -623   -1    0    0    0    0  0.00000000000E+00  0.00000000000E+00  0.12525980253E-10  0.17130000000E+03  0.17130000000E+03 0. -1.
       11    1    1    2    0    0 -0.20712604961E-02  0.17373332825E-03  0.13937225810E+00  0.13938869342E+00  0.51109989000E-03 0. -1.
     -623    1    1    2    0    0 -0.90915086730E-03  0.87365745586E-03  0.46840435724E-04  0.17130000000E+03  0.17130000000E+03 0. -1.
      622    1    1    2    0    0  0.29804113634E-02 -0.10473907841E-02  0.38605808688E+01  0.38606113019E+01  0.15000000000E-01 0. -1.
</event>
<event>
 5   0  0.2306700E+09  0.9118800E+02  0.7818608E-02  0.1180000E+00
       11   -1    0    0    0    0  0.00000000000E+00  0.00000000000E+00  0.39999999673E+01  0.40000000000E+01  0.51109989000E-03 0.  1.
     -623   -1    0    0    0    0  0.00000000000E+00  0.00000000000E+00  0.12525980253E-10  0.17130000000E+03  0.17130000000E+03 0.  1.
       11    1    1    2    0    0 -0.13131741947E-01 -0.15652032104E-02  0.35573127709E+00  0.35597738022E+00  0.51109989000E-03 0.  1.
     -623    1    1    2    0    0  0.14398866747E-02  0.19711986824E-02  0.29574024323E-03  0.17130000002E+03  0.17130000000E+03 0.  1.
      622    1    1    2    0    0  0.11691855273E-01 -0.40599547200E-03  0.36439729500E+01  0.36440226021E+01  0.15000000000E-01 0.  1.
</event>
<event>
 5   0  0.2306700E+09  0.9118800E+02  0.7818608E-02  0.1180000E+00
       11   -1    0    0    0    0  0.00000000000E+00  0.00000000000E+00  0.39999999673E+01  0.40000000000E+01  0.51109989000E-03 0. -1.
     -623   -1    0    0    0    0  0.00000000000E+00  0.00000000000E+00  0.12525980253E-10  0.17130000000E+03  0.17130000000E+03 0. -1.
       11    1    1    2    0    0 -0.15510737988E-02  0.25901061923E-02  0.80575622522E+00  0.80576204315E+00  0.51109989000E-03 0. -1.
     -623    1    1    2    0    0  0.24208052573E-03  0.38776152684E-03  0.42662075066E-04  0.17130000000E+03  0.17130000000E+03 0. -1.
      622    1    1    2    0    0  0.13089932730E-02 -0.29778677191E-02  0.31942010801E+01  0.31942379562E+01  0.15000000000E-01 0.  0.
</event>
<event>
 5   0  0.2306700E+09  0.9118800E+02  0.7818608E-02  0.1180000E+00
       11   -1    0    0    0    0  0.00000000000E+00  0.00000000000E+00  0.39999999673E+01  0.40000000000E+01  0.51109989000E-03 0.  1.
     -623   -1    0    0    0    0  0.00000000000E+00  0.00000000000E+00  0.12525980253E-10  0.17130000000E+03  0.17130000000E+03 0.  1.
       11    1    1    2    0    0 -0.13954818328E-04  0.28428548789E-02  0.48228870521E-01  0.48315289417E-01  0.51109989000E-03 0.  1.
     -623    1    1    2    0    0  0.46044162965E-04 -0.39048974158E-03  0.11561680853E-03  0.17130000000E+03  0.17130000000E+03 0.  1.
      622    1    1    2    0    0 -0.32089344637E-04 -0.24523651373E-02  0.39516554800E+01  0.39516847101E+01  0.15000000000E-01 0.  1.
</event>
<event>
 5   0  0.2306700E+09  0.9118800E+02  0.7818608E-02  0.1180000E+00
       11   -1    0    0    0    0  0.00000000000E+00  0.00000000000E+00  0.39999999673E+01  0.40000000000E+01  0.51109989000E-03 0.  1.
     -623   -1    0    0    0    0  0.00000000000E+00  0.00000000000E+00  0.12525980253E-10  0.17130000000E+03  0.17130000000E+03 0.  1.
       11    1    1    2    0    0  0.30712108605E-02 -0.74501099091E-03  0.19779301916E-01  0.20036700948E-01  0.51109989000E-03 0.  1.
     -623    1    1    2    0    0 -0.35987997288E-02  0.15714698012E-02  0.28579911421E-03  0.17130000005E+03  0.17130000000E+03 0.  1.
      622    1    1    2    0    0  0.52758886854E-03 -0.82645881040E-03  0.39799348665E+01  0.39799632540E+01  0.15000000000E-01 0.  1.
</event>
<event>
 5   0  0.2306700E+09  0.9118800E+02  0.7818608E-02  0.1180000E+00
       11   -1    0    0    0    0  0.00000000000E+00  0.00000000000E+00  0.39999999673E+01  0.40000000000E+01  0.51109989000E-03 0.  1.
     -623   -1    0    0    0    0  0.00000000000E+00  0.00000000000E+00  0.12525980253E-10  0.17130000000E+03  0.17130000000E+03 0.  1.
       11    1    1    2    0    0 -0.58881122463E-02  0.10998152380E-01  0.37003701314E-01  0.39053352681E-01  0.51109989000E-03 0.  1.
     -623    1    1    2    0    0  0.16407674606E-01  0.57175746668E-02  0.21281565765E-02  0.17130000089E+03  0.17130000000E+03 0.  1.
      622    1    1    2    0    0 -0.10519562361E-01 -0.16715727048E-01  0.39608681098E+01  0.39609457532E+01  0.15000000000E-01 0.  1.
</event>
<event>
 5   0  0.2306700E+09  0.9118800E+02  0.7818608E-02  0.1180000E+00
       11   -1    0    0    0    0  0.00000000000E+00  0.00000000000E+00  0.39999999673E+01  0.40000000000E+01  0.51109989000E-03 0.  1.
     -623   -1    0    0    0    0  0.00000000000E+00  0.00000000000E+00  0.12525980253E-10  0.17130000000E+03  0.17130000000E+03 0.  1.
       11    1    1    2    0    0 -0.44542151641E-02  0.38020730479E-02  0.30367079208E+00  0.30372768556E+00  0.51109989000E-03 0.  1.
     -623    1    1    2    0    0  0.49982739234E-02 -0.11417901488E-01  0.95636484863E-04  0.17130000045E+03  0.17130000000E+03 0.  1.
      622    1    1    2    0    0 -0.54405875934E-03  0.76158284399E-02  0.36962335388E+01  0.36962718610E+01  0.15000000000E-01 0.  1.
</event>
<event>
 5   0  0.2306700E+09  0.9118800E+02  0.7818608E-02  0.1180000E+00
       11   -1    0    0    0    0  0.00000000000E+00  0.00000000000E+00  0.39999999673E+01  0.40000000000E+01  0.51109989000E-03 0.  1.
     -623   -1    0    0    0    0  0.00000000000E+00  0.00000000000E+00  0.12525980253E-10  0.17130000000E+03  0.17130000000E+03 0.  1.
       11    1    1    2    0    0  0.20350879261E-03 -0.12085556077E-02  0.19639444408E+00  0.19639893307E+00  0.51109989000E-03 0.  1.
     -623    1    1    2    0    0  0.22817596060E-03 -0.19654739896E-05  0.34250979275E-04  0.17130000000E+03  0.17130000000E+03 0.  1.
      622    1    1    2    0    0 -0.43168475321E-03  0.12105210816E-02  0.38035712723E+01  0.38036010668E+01  0.15000000000E-01 0.  1.
</event>
<event>
 5   0  0.2306700E+09  0.9118800E+02  0.7818608E-02  0.1180000E+00
       11   -1    0    0    0    0  0.00000000000E+00  0.00000000000E+00  0.39999999673E+01  0.40000000000E+01  0.51109989000E-03 0.  1.
     -623   -1    0    0    0    0  0.00000000000E+00  0.00000000000E+00  0.12525980253E-10  0.17130000000E+03  0.17130000000E+03 0. -1.
       11    1    1    2    0    0 -0.71455739169E-02 -0.42501113391E-02  0.10201981222E+00  0.10235929846E+00  0.51109989000E-03 0.  1.
     -623    1    1    2    0    0 -0.18392324151E-02 -0.12725877248E-01  0.41612595476E-03  0.17130000048E+03  0.17130000000E+03 0. -1.
      622    1    1    2    0    0  0.89848063320E-02  0.16975988587E-01  0.38975640293E+01  0.38976402186E+01  0.15000000000E-01 0.  1.
</event>
<event>
 5   0  0.2306700E+09  0.9118800E+02  0.7818608E-02  0.1180000E+00
       11   -1    0    0    0    0  0.00000000000E+00  0.00000000000E+00  0.39999999673E+01  0.40000000000E+01  0.51109989000E-03 0. -1.
     -623   -1    0    0    0    0  0.00000000000E+00  0.00000000000E+00  0.12525980253E-10  0.17130000000E+03  0.17130000000E+03 0. -1.
       11    1    1    2    0    0  0.16365839799E-02  0.19030857851E-02  0.12064884892E+00  0.12067603784E+00  0.51109989000E-03 0. -1.
     -623    1    1    2    0    0 -0.30906351558E-02 -0.39818947523E-02  0.57059952330E-04  0.17130000007E+03  0.17130000000E+03 0. -1.
      622    1    1    2    0    0  0.14540511759E-02  0.20788089672E-02  0.38792940585E+01  0.38793238880E+01  0.15000000000E-01 0. -1.
</event>
<event>
 5   0  0.2306700E+09  0.9118800E+02  0.7818608E-02  0.1180000E+00
       11   -1    0    0    0    0  0.00000000000E+00  0.00000000000E+00  0.39999999673E+01  0.40000000000E+01  0.51109989000E-03 0. -1.
     -623   -1    0    0    0    0  0.00000000000E+00  0.00000000000E+00  0.12525980253E-10  0.17130000000E+03  0.17130000000E+03 0. -1.
       11    1    1    2    0    0  0.84515088768E-03 -0.18746807975E-02  0.14231613526E+00  0.14233190888E+00  0.51109989000E-03 0. -1.
     -623    1    1    2    0    0 -0.98131194361E-04  0.34953642914E-03  0.45277989748E-04  0.17130000000E+03  0.17130000000E+03 0. -1.
      622    1    1    2    0    0 -0.74701969332E-03  0.15251443683E-02  0.38576385541E+01  0.38576680907E+01  0.15000000000E-01 0. -1.
</event>
<event>
 5   0  0.2306700E+09  0.9118800E+02  0.7818608E-02  0.1180000E+00
       11   -1    0    0    0    0  0.00000000000E+00  0.00000000000E+00  0.39999999673E+01  0.40000000000E+01  0.51109989000E-03 0. -1.
     -623   -1    0    0    0    0  0.00000000000E+00  0.00000000000E+00  0.12525980253E-10  0.17130000000E+03  0.17130000000E+03 0.  1.
       11    1    1    2    0    0 -0.10683813079E-01  0.53383801392E-02  0.75152777126E+00  0.75162284050E+00  0.51109989000E-03 0. -1.
     -623    1    1    2    0    0 -0.30584866719E-03 -0.30231639843E-03  0.15216386682E-03  0.17130000000E+03  0.17130000000E+03 0.  1.
      622    1    1    2    0    0  0.10989661746E-01 -0.50360637407E-02  0.32483200325E+01  0.32483771592E+01  0.15000000000E-01 0. -1.
</event>
<event>
 5   0  0.2306700E+09  0.9118800E+02  0.7818608E-02  0.1180000E+00
       11   -1    0    0    0    0  0.00000000000E+00  0.00000000000E+00  0.39999999673E+01  0.40000000000E+01  0.51109989000E-03 0. -1.
     -623   -1    0    0    0    0  0.00000000000E+00  0.00000000000E+00  0.12525980253E-10  0.17130000000E+03  0.17130000000E+03 0. -1.
       11    1    1    2    0    0  0.59892293394E-02 -0.11312280251E-02  0.86472190011E+00  0.86474353210E+00  0.51109989000E-03 0. -1.
     -623    1    1    2    0    0  0.76064140985E-04 -0.55292215284E-03  0.63801904351E-04  0.17130000000E+03  0.17130000000E+03 0. -1.
      622    1    1    2    0    0 -0.60652934804E-02  0.16841501783E-02  0.31352142683E+01  0.31352564699E+01  0.15000000000E-01 0. -1.
</event>
<event>
 5   0  0.2306700E+09  0.9118800E+02  0.7818608E-02  0.1180000E+00
       11   -1    0    0    0    0  0.00000000000E+00  0.00000000000E+00  0.39999999673E+01  0.40000000000E+01  0.51109989000E-03 0. -1.
     -623   -1    0    0    0    0  0.00000000000E+00  0.00000000000E+00  0.12525980253E-10  0.17130000000E+03  0.17130000000E+03 0.  1.
       11    1    1    2    0    0  0.11357280442E-02 -0.20819807529E-02  0.44321818744E+00  0.44322482717E+00  0.51109989000E-03 0. -1.
     -623    1    1    2    0    0 -0.33199182800E-01  0.13655373819E-01  0.20535536167E-03  0.17130000376E+03  0.17130000000E+03 0.  1.
      622    1    1    2    0    0  0.32063454749E-01 -0.11573393063E-01  0.35565764237E+01  0.35567714105E+01  0.15000000000E-01 0.  0.
</event>
<event>
 5   0  0.2306700E+09  0.9118800E+02  0.7818608E-02  0.1180000E+00
       11   -1    0    0    0    0  0.00000000000E+00  0.00000000000E+00  0.39999999673E+01  0.40000000000E+01  0.51109989000E-03 0.  1.
     -623   -1    0    0    0    0  0.00000000000E+00  0.00000000000E+00  0.12525980253E-10  0.17130000000E+03  0.17130000000E+03 0.  1.
       11    1    1    2    0    0 -0.11937528195E-01  0.54611058322E-02  0.51771083138E-01  0.53411932457E-01  0.51109989000E-03 0.  1.
     -623    1    1    2    0    0  0.19426929004E-01  0.84731148638E-03  0.16825826059E-02  0.17130000111E+03  0.17130000000E+03 0.  1.
      622    1    1    2    0    0 -0.74894008094E-02 -0.63084173186E-02  0.39465463017E+01  0.39465869557E+01  0.15000000000E-01 0.  1.
</event>
<event>
 5   0  0.2306700E+09  0.9118800E+02  0.7818608E-02  0.1180000E+00
       11   -1    0    0    0    0  0.00000000000E+00  0.00000000000E+00  0.39999999673E+01  0.40000000000E+01  0.51109989000E-03 0.  1.
     -623   -1    0    0    0    0  0.00000000000E+00  0.00000000000E+00  0.12525980253E-10  0.17130000000E+03  0.17130000000E+03 0.  1.
       11    1    1    2    0    0  0.65004194298E-04  0.24498654991E-03  0.14860586332E-02  0.15918031643E-02  0.51109989000E-03 0.  1.
     -623    1    1    2    0    0 -0.43644701384E-03 -0.42151751904E-03  0.13387046380E-03  0.17130000000E+03  0.17130000000E+03 0.  1.
      622    1    1    2    0    0  0.37144281977E-03  0.17653096934E-03  0.39983800404E+01  0.39984081978E+01  0.15000000000E-01 0.  1.
</event>
<event>
 5   0  0.2306700E+09  0.9118800E+02  0.7818608E-02  0.1180000E+00
       11   -1    0    0    0    0  0.00000000000E+00  0.00000000000E+00  0.39999999673E+01  0.40000000000E+01  0.51109989000E-03 0.  1.
     -623   -1    0    0    0    0  0.00000000000E+00  0.00000000000E+00  0.12525980253E-10  0.17130000000E+03  0.17130000000E+03 0.  1.
       11    1    1    2    0    0 -0.10678664542E-02  0.67481473785E-03  0.36428821953E-02  0.38894122282E-02  0.51109989000E-03 0.  1.
     -623    1    1    2    0    0 -0.21036338045E-03 -0.62970745761E-03  0.27485606183E-03  0.17130000000E+03  0.17130000000E+03 0.  1.
      622    1    1    2    0    0  0.12782298347E-02 -0.45107280181E-04  0.39960822295E+01  0.39961105867E+01  0.15000000000E-01 0.  1.
</event>
<event>
 5   0  0.2306700E+09  0.9118800E+02  0.7818608E-02  0.1180000E+00
       11   -1    0    0    0    0  0.00000000000E+00  0.00000000000E+00  0.39999999673E+01  0.40000000000E+01  0.51109989000E-03 0.  1.
     -623   -1    0    0    0    0  0.00000000000E+00  0.00000000000E+00  0.12525980253E-10  0.17130000000E+03  0.17130000000E+03 0.  1.
       11    1    1    2    0    0 -0.54246806650E-03 -0.32961470901E-02  0.26075933797E-01  0.26293999386E-01  0.51109989000E-03 0.  1.
     -623    1    1    2    0    0  0.18604253994E-03  0.50257671154E-02  0.24681056821E-03  0.17130000007E+03  0.17130000000E+03 0.  1.
      622    1    1    2    0    0  0.35642552654E-03 -0.17296200257E-02  0.39736772233E+01  0.39737059270E+01  0.15000000000E-01 0.  1.
</event>
<event>
 5   0  0.2306700E+09  0.9118800E+02  0.7818608E-02  0.1180000E+00
       11   -1    0    0    0    0  0.00000000000E+00  0.00000000000E+00  0.39999999673E+01  0.40000000000E+01  0.51109989000E-03 0.  1.
     -623   -1    0    0    0    0  0.00000000000E+00  0.00000000000E+00  0.12525980253E-10  0.17130000000E+03  0.17130000000E+03 0.  1.
       11    1    1    2    0    0  0.14356622196E-02 -0.20938446785E-02  0.88301019498E+00  0.88301399251E+00  0.51109989000E-03 0.  1.
     -623    1    1    2    0    0  0.48364237608E-04 -0.33209599778E-03  0.41155338782E-04  0.17130000000E+03  0.17130000000E+03 0.  1.
      622    1    1    2    0    0 -0.14840264572E-02  0.24259406763E-02  0.31169486170E+01  0.31169860072E+01  0.15000000000E-01 0.  1.
</event>
<event>
 5   0  0.2306700E+09  0.9118800E+02  0.7818608E-02  0.1180000E+00
       11   -1    0    0    0    0  0.00000000000E+00  0.00000000000E+00  0.39999999673E+01  0.40000000000E+01  0.51109989000E-03 0. -1.
     -623   -1    0    0    0    0  0.00000000000E+00  0.00000000000E+00  0.12525980253E-10  0.17130000000E+03  0.17130000000E+03 0. -1.
       11    1    1    2    0    0  0.32426906346E-03  0.69577594919E-03  0.71442954247E-01  0.71448906144E-01  0.51109989000E-03 0. -1.
     -623    1    1    2    0    0 -0.17695661970E-04 -0.15448519081E-02  0.34666561848E-04  0.17130000001E+03  0.17130000000E+03 0. -1.
      622    1    1    2    0    0 -0.30657340143E-03  0.84907596486E-03  0.39285223619E+01  0.39285511022E+01  0.15000000000E-01 0. -1.
</event>
<event>
 5   0  0.2306700E+09  0.9118800E+02  0.7818608E-02  0.1180000E+00
       11   -1    0    0    0    0  0.00000000000E+00  0.00000000000E+00  0.39999999673E+01  0.40000000000E+01  0.51109989000E-03 0. -1.
     -623   -1    0    0    0    0  0.00000000000E+00  0.00000000000E+00  0.12525980253E-10  0.17130000000E+03  0.17130000000E+03 0.  1.
       11    1    1    2    0    0  0.32221925172E-02 -0.34418423673E-02  0.14076160730E-01  0.14853562788E-01  0.51109989000E-03 0. -1.
     -623    1    1    2    0    0 -0.22444230134E-02  0.15920604476E-02  0.80617260441E-03  0.17130000002E+03  0.17130000000E+03 0.  1.
      622    1    1    2    0    0 -0.97776950356E-03  0.18497819195E-02  0.39851176345E+01  0.39851464137E+01  0.15000000000E-01 0. -1.
</event>
<event>
 5   0  0.2306700E+09  0.9118800E+02  0.7818608E-02  0.1180000E+00
       11   -1    0    0    0    0  0.00000000000E+00  0.00000000000E+00  0.39999999673E+01  0.40000000000E+01  0.51109989000E-03 0.  1.
     -623   -1    0    0    0    0  0.00000000000E+00  0.00000000000E+00  0.12525980253E-10  0.17130000000E+03  0.17130000000E+03 0. -1.
       11    1    1    2    0    0  0.10271747744E-02  0.70773701783E-03  0.36388590333E+00  0.36388840026E+00  0.51109989000E-03 0.  1.
     -623    1    1    2    0    0  0.19005134726E-04  0.86290894682E-04  0.33641294208E-04  0.17130000000E+03  0.17130000000E+03 0. -1.
      622    1    1    2    0    0 -0.10461799092E-02 -0.79402791251E-03  0.36360804227E+01  0.36361115997E+01  0.15000000000E-01 0.  1.
</event>
<event>
 5   0  0.2306700E+09  0.9118800E+02  0.7818608E-02  0.1180000E+00
       11   -1    0    0    0    0  0.00000000000E+00  0.00000000000E+00  0.39999999673E+01  0.40000000000E+01  0.51109989000E-03 0.  1.
     -623   -1    0    0    0    0  0.00000000000E+00  0.00000000000E+00  0.12525980253E-10  0.17130000000E+03  0.17130000000E+03 0. -1.
       11    1    1    2    0    0 -0.84185786261E-03  0.76582131094E-03  0.33991438708E-01  0.34014325414E-01  0.51109989000E-03 0.  1.
     -623    1    1    2    0    0  0.85316758026E-04  0.11316460243E-03  0.51390012987E-04  0.17130000000E+03  0.17130000000E+03 0. -1.
      622    1    1    2    0    0  0.75654110458E-03 -0.87898591337E-03  0.39659571386E+01  0.39659856745E+01  0.15000000000E-01 0.  1.
</event>
<event>
 5   0  0.2306700E+09  0.9118800E+02  0.7818608E-02  0.1180000E+00
       11   -1    0    0    0    0  0.00000000000E+00  0.00000000000E+00  0.39999999673E+01  0.40000000000E+01  0.51109989000E-03 0. -1.
     -623   -1    0    0    0    0  0.00000000000E+00  0.00000000000E+00  0.12525980253E-10  0.17130000000E+03  0.17130000000E+03 0.  1.
       11    1    1    2    0    0  0.12251178548E-02  0.11812790023E-02  0.32013459883E-01  0.32062738020E-01  0.51109989000E-03 0. -1.
     -623    1    1    2    0    0  0.11793488058E-03 -0.11191447674E-04  0.77997739689E-04  0.17130000000E+03  0.17130000000E+03 0.  1.
      622    1    1    2    0    0 -0.13430527354E-02 -0.11700875547E-02  0.39679085097E+01  0.39679372619E+01  0.15000000000E-01 0. -1.
</event>
<event>
 5   0  0.2306700E+09  0.9118800E+02  0.7818608E-02  0.1180000E+00
       11   -1    0    0    0    0  0.00000000000E+00  0.00000000000E+00  0.39999999673E+01  0.40000000000E+01  0.51109989000E-03 0. -1.
     -623   -1    0    0    0    0  0.00000000000E+00  0.00000000000E+00  0.12525980253E-10  0.17130000000E+03  0.17130000000E+03 0. -1.
       11    1    1    2    0    0  0.29041904324E-03 -0.79023209857E-03  0.11739861824E+00  0.11740274953E+00  0.51109989000E-03 0. -1.
     -623    1    1    2    0    0 -0.18492418916E-03 -0.13410850898E-03  0.33185818820E-04  0.17130000000E+03  0.17130000000E+03 0. -1.
      622    1    1    2    0    0 -0.10549485408E-03  0.92434060755E-03  0.38825681633E+01  0.38825972503E+01  0.15000000000E-01 0. -1.
</event>
<event>
 5   0  0.2306700E+09  0.9118800E+02  0.7818608E-02  0.1180000E+00
       11   -1    0    0    0    0  0.00000000000E+00  0.00000000000E+00  0.39999999673E+01  0.40000000000E+01  0.51109989000E-03 0.  1.
     -623   -1    0    0    0    0  0.00000000000E+00  0.00000000000E+00  0.12525980253E-10  0.17130000000E+03  0.17130000000E+03 0. -1.
       11    1    1    2    0    0  0.25612005429E-02 -0.10207576313E-02  0.15526829372E-01  0.15778002022E-01  0.51109989000E-03 0.  1.
     -623    1    1    2    0    0 -0.29077641496E-02  0.89511780086E-05  0.27954494574E-03  0.17130000002E+03  0.17130000000E+03 0. -1.
      622    1    1    2    0    0  0.34656360605E-03  0.10118064533E-02  0.39841935922E+01  0.39842219722E+01  0.15000000000E-01 0.  1.
</event>
<event>
 5   0  0.2306700E+09  0.9118800E+02  0.7818608E-02  0.1180000E+00
       11   -1    0    0    0    0  0.00000000000E+00  0.00000000000E+00  0.39999999673E+01  0.40000000000E+01  0.51109989000E-03 0.  1.
     -623   -1    0    0    0    0  0.00000000000E+00  0.00000000000E+00  0.12525980253E-10  0.17130000000E+03  0.17130000000E+03 0.  1.
       11    1    1    2    0    0 -0.49427658477E-03  0.16911819132E-02  0.67161652275E-01  0.67186703761E-01  0.51109989000E-03 0.  1.
     -623    1    1    2    0    0  0.20169376241E-03  0.11033594548E-03  0.54048091058E-04  0.17130000000E+03  0.17130000000E+03 0.  1.
      622    1    1    2    0    0  0.29258282235E-03 -0.18015178587E-02  0.39327842670E+01  0.39328132961E+01  0.15000000000E-01 0.  1.
</event>
<event>
 5   0  0.2306700E+09  0.9118800E+02  0.7818608E-02  0.1180000E+00
       11   -1    0    0    0    0  0.00000000000E+00  0.00000000000E+00  0.39999999673E+01  0.40000000000E+01  0.51109989000E-03 0.  1.
     -623   -1    0    0    0    0  0.00000000000E+00  0.00000000000E+00  0.12525980253E-10  0.17130000000E+03  0.17130000000E+03 0.  1.
       11    1    1    2    0    0 -0.29140217026E-02  0.26794627043E-01  0.51570029502E+00  0.51640439490E+00  0.51109989000E-03 0.  1.
     -623    1    1    2    0    0 -0.18585885413E-02  0.18508776266E-02  0.85743192751E-03  0.17130000002E+03  0.17130000000E+03 0.  1.
      622    1    1    2    0    0  0.47726102440E-02 -0.28645504670E-01  0.34834422406E+01  0.34835955831E+01  0.15000000000E-01 0.  1.
</event>
<event>
 5   0  0.2306700E+09  0.9118800E+02  0.7818608E-02  0.1180000E+00
       11   -1    0    0    0    0  0.00000000000E+00  0.00000000000E+00  0.39999999673E+01  0.40000000000E+01  0.51109989000E-03 0. -1.
     -623   -1    0    0    0    0  0.00000000000E+00  0.00000000000E+00  0.12525980253E-10  0.17130000000E+03  0.17130000000E+03 0. -1.
       11    1    1    2    0    0 -0.64855217786E-03 -0.32986237998E-03  0.24980268228E-01  0.24996088753E-01  0.51109989000E-03 0.  1.
     -623    1    1    2    0    0  0.20714544423E-02  0.34935550348E-02  0.45651670384E-04  0.17130000005E+03  0.17130000000E+03 0. -1.
      622    1    1    2    0    0 -0.14229022663E-02 -0.31636926579E-02  0.39749740511E+01  0.39750038667E+01  0.15000000000E-01 0. -1.
</event>
<event>
 5   0  0.2306700E+09  0.9118800E+02  0.7818608E-02  0.1180000E+00
       11   -1    0    0    0    0  0.00000000000E+00  0.00000000000E+00  0.39999999673E+01  0.40000000000E+01  0.51109989000E-03 0.  1.
     -623   -1    0    0    0    0  0.00000000000E+00  0.00000000000E+00  0.12525980253E-10  0.17130000000E+03  0.17130000000E+03 0.  1.
       11    1    1    2    0    0 -0.22398350771E-02 -0.24437678256E-02  0.51238809548E+00  0.51239907345E+00  0.51109989000E-03 0.  1.
     -623    1    1    2    0    0  0.27114376941E-04 -0.97364047130E-04  0.44830356310E-04  0.17130000000E+03  0.17130000000E+03 0.  1.
      622    1    1    2    0    0  0.22127207001E-02  0.25411318728E-02  0.34875670426E+01  0.34876009276E+01  0.15000000000E-01 0.  1.
</event>
<event>
 5   0  0.2306700E+09  0.9118800E+02  0.7818608E-02  0.1180000E+00
       11   -1    0    0    0    0  0.00000000000E+00  0.00000000000E+00  0.39999999673E+01  0.40000000000E+01  0.51109989000E-03 0. -1.
     -623   -1    0    0    0    0  0.00000000000E+00  0.00000000000E+00  0.12525980253E-10  0.17130000000E+03  0.17130000000E+03 0. -1.
       11    1    1    2    0    0 -0.29698416124E-02  0.49881177060E-02  0.23241803365E+00  0.23249108556E+00  0.51109989000E-03 0. -1.
     -623    1    1    2    0    0  0.12760127190E-02  0.44443023812E-04  0.10662675233E-03  0.17130000000E+03  0.17130000000E+03 0. -1.
      622    1    1    2    0    0  0.16938288928E-02 -0.50325607298E-02  0.37674753091E+01  0.37675089118E+01  0.15000000000E-01 0. -1.
</event>
<event>
 5   0  0.2306700E+09  0.9118800E+02  0.7818608E-02  0.1180000E+00
       11   -1    0    0    0    0  0.00000000000E+00  0.00000000000E+00  0.39999999673E+01  0.40000000000E+01  0.51109989000E-03 0. -1.
     -623   -1    0    0    0    0  0.00000000000E+00  0.00000000000E+00  0.12525980253E-10  0.17130000000E+03  0.17130000000E+03 0. -1.
       11    1    1    2    0    0 -0.19441570910E-02 -0.91451360331E-03  0.55652381917E-01  0.55696184050E-01  0.51109989000E-03 0. -1.
     -623    1    1    2    0    0  0.85236948011E-03  0.14956801196E-02  0.72494326433E-04  0.17130000001E+03  0.17130000000E+03 0. -1.
      622    1    1    2    0    0  0.10917876109E-02 -0.58116651631E-03  0.39442750911E+01  0.39443038073E+01  0.15000000000E-01 0. -1.
</event>
<event>
 5   0  0.2306700E+09  0.9118800E+02  0.7818608E-02  0.1180000E+00
       11   -1    0    0    0    0  0.00000000000E+00  0.00000000000E+00  0.39999999673E+01  0.40000000000E+01  0.51109989000E-03 0.  1.
     -623   -1    0    0    0    0  0.00000000000E+00  0.00000000000E+00  0.12525980253E-10  0.17130000000E+03  0.17130000000E+03 0. -1.
       11    1    1    2    0    0 -0.28484322505E-04  0.12272619191E-02  0.22946877539E-01  0.22985373503E-01  0.51109989000E-03 0.  1.
     -623    1    1    2    0    0 -0.60147475108E-03 -0.23252927837E-03  0.66926496536E-04  0.17130000000E+03  0.17130000000E+03 0. -1.
      622    1    1    2    0    0  0.62995907389E-03 -0.99473264058E-03  0.39769861654E+01  0.39770146273E+01  0.15000000000E-01 0.  1.
</event>
<event>
 5   0  0.2306700E+09  0.9118800E+02  0.7818608E-02  0.1180000E+00
       11   -1    0    0    0    0  0.00000000000E+00  0.00000000000E+00  0.39999999673E+01  0.40000000000E+01  0.51109989000E-03 0.  1.
     -623   -1    0    0    0    0  0.00000000000E+00  0.00000000000E+00  0.12525980253E-10  0.17130000000E+03  0.17130000000E+03 0. -1.
       11    1    1    2    0    0 -0.70994790825E-02 -0.17066787889E-02  0.87031536571E+00  0.87034614514E+00  0.51109989000E-03 0.  1.
     -623    1    1    2    0    0  0.65846965717E-02  0.93028034188E-02  0.76333557769E-04  0.17130000038E+03  0.17130000000E+03 0. -1.
      622    1    1    2    0    0  0.51478251080E-03 -0.75961246300E-02  0.31296082681E+01  0.31296534757E+01  0.15000000000E-01 0.  1.
</event>
<event>
 5   0  0.2306700E+09  0.9118800E+02  0.7818608E-02  0.1180000E+00
       11   -1    0    0    0    0  0.00000000000E+00  0.00000000000E+00  0.39999999673E+01  0.40000000000E+01  0.51109989000E-03 0. -1.
     -623   -1    0    0    0    0  0.00000000000E+00  0.00000000000E+00  0.12525980253E-10  0.17130000000E+03  0.17130000000E+03 0. -1.
       11    1    1    2    0    0  0.34560216493E-03  0.54819966534E-03  0.13672748197E+00  0.13672997299E+00  0.51109989000E-03 0. -1.
     -623    1    1    2    0    0 -0.63823469236E-03 -0.56907743030E-03  0.31592170255E-04  0.17130000000E+03  0.17130000000E+03 0. -1.
      622    1    1    2    0    0  0.29263252773E-03  0.20877765229E-04  0.38632408951E+01  0.38632700267E+01  0.15000000000E-01 0. -1.
</event>
<event>
 5   0  0.2306700E+09  0.9118800E+02  0.7818608E-02  0.1180000E+00
       11   -1    0    0    0    0  0.00000000000E+00  0.00000000000E+00  0.39999999673E+01  0.40000000000E+01  0.51109989000E-03 0. -1.
     -623   -1    0    0    0    0  0.00000000000E+00  0.00000000000E+00  0.12525980253E-10  0.17130000000E+03  0.17130000000E+03 0. -1.
       11    1    1    2    0    0 -0.27592373650E-02 -0.49689070405E-03  0.22946305560E-01  0.23122596143E-01  0.51109989000E-03 0. -1.
     -623    1    1    2    0    0  0.45675377732E-02 -0.21346263747E-02  0.20590266096E-03  0.17130000007E+03  0.17130000000E+03 0. -1.
      622    1    1    2    0    0 -0.18083004082E-02  0.26315170787E-02  0.39768477591E+01  0.39768773295E+01  0.15000000000E-01 0. -1.
</event>
<event>
 5   0  0.2306700E+09  0.9118800E+02  0.7818608E-02  0.1180000E+00
       11   -1    0    0    0    0  0.00000000000E+00  0.00000000000E+00  0.39999999673E+01  0.40000000000E+01  0.51109989000E-03 0.  1.
     -623   -1    0    0    0    0  0.00000000000E+00  0.00000000000E+00  0.12525980253E-10  0.17130000000E+03  0.17130000000E+03 0. -1.
       11    1    1    2    0    0 -0.43539297447E-01  0.16160952215E-01  0.33350748717E+00  0.33672593013E+00  0.51109989000E-03 0.  1.
     -623    1    1    2    0    0 -0.20470851512E-01  0.38930395140E-01  0.42284535816E-02  0.17130000570E+03  0.17130000000E+03 0. -1.
      622    1    1    2    0    0  0.64010148959E-01 -0.55091347356E-01  0.36622640267E+01  0.36632683708E+01  0.15000000000E-01 0.  1.
</event>
<event>
 5   0  0.2306700E+09  0.9118800E+02  0.7818608E-02  0.1180000E+00
       11   -1    0    0    0    0  0.00000000000E+00  0.00000000000E+00  0.39999999673E+01  0.40000000000E+01  0.51109989000E-03 0. -1.
     -623   -1    0    0    0    0  0.00000000000E+00  0.00000000000E+00  0.12525980253E-10  0.17130000000E+03  0.17130000000E+03 0. -1.
       11    1    1    2    0    0  0.46278219979E-03 -0.41333126170E-02  0.24197122769E+00  0.24200750957E+00  0.51109989000E-03 0. -1.
     -623    1    1    2    0    0  0.81411485839E-03  0.10364290864E-03  0.68564987102E-04  0.17130000000E+03  0.17130000000E+03 0. -1.
      622    1    1    2    0    0 -0.12768970582E-02  0.40296697084E-02  0.37579601747E+01  0.37579924884E+01  0.15000000000E-01 0. -1.
</event>
<event>
 5   0  0.2306700E+09  0.9118800E+02  0.7818608E-02  0.1180000E+00
       11   -1    0    0    0    0  0.00000000000E+00  0.00000000000E+00  0.39999999673E+01  0.40000000000E+01  0.51109989000E-03 0.  1.
     -623   -1    0    0    0    0  0.00000000000E+00  0.00000000000E+00  0.12525980253E-10  0.17130000000E+03  0.17130000000E+03 0. -1.
       11    1    1    2    0    0 -0.22628717915E-02 -0.28826058038E-02  0.15724008442E+00  0.15728361445E+00  0.51109989000E-03 0.  1.
     -623    1    1    2    0    0 -0.17062463116E-03 -0.59124221046E-03  0.75115538831E-04  0.17130000000E+03  0.17130000000E+03 0. -1.
      622    1    1    2    0    0  0.24334964227E-02  0.34738480142E-02  0.38426847674E+01  0.38427163844E+01  0.15000000000E-01 0.  0.
</event>
<event>
 5   0  0.2306700E+09  0.9118800E+02  0.7818608E-02  0.1180000E+00
       11   -1    0    0    0    0  0.00000000000E+00  0.00000000000E+00  0.39999999673E+01  0.40000000000E+01  0.51109989000E-03 0.  1.
     -623   -1    0    0    0    0  0.00000000000E+00  0.00000000000E+00  0.12525980253E-10  0.17130000000E+03  0.17130000000E+03 0.  1.
       11    1    1    2    0    0 -0.63719564492E-02  0.69987567100E-02  0.77935185644E-01  0.78509482277E-01  0.51109989000E-03 0.  1.
     -623    1    1    2    0    0  0.66727775451E-03 -0.26250907695E-01  0.65637447378E-03  0.17130000201E+03  0.17130000000E+03 0.  1.
      622    1    1    2    0    0  0.57046786947E-02  0.19252150986E-01  0.39214084072E+01  0.39214885038E+01  0.15000000000E-01 0.  1.
</event>
<event>
 5   0  0.2306700E+09  0.9118800E+02  0.7818608E-02  0.1180000E+00
       11   -1    0    0    0    0  0.00000000000E+00  0.00000000000E+00  0.39999999673E+01  0.40000000000E+01  0.51109989000E-03 0. -1.
     -623   -1    0    0    0    0  0.00000000000E+00  0.00000000000E+00  0.12525980253E-10  0.17130000000E+03  0.17130000000E+03 0.  1.
       11    1    1    2    0    0 -0.85702726364E-03  0.10210206479E-02  0.76820048655E+00  0.76820181316E+00  0.51109989000E-03 0. -1.
     -623    1    1    2    0    0  0.42524573435E-04 -0.20036874843E-03  0.36311457784E-04  0.17130000000E+03  0.17130000000E+03 0.  1.
      622    1    1    2    0    0  0.81450269026E-03 -0.82065189972E-03  0.32317631647E+01  0.32317981821E+01  0.15000000000E-01 0. -1.
</event>
<event>
 5   0  0.2306700E+09  0.9118800E+02  0.7818608E-02  0.1180000E+00
       11   -1    0    0    0    0  0.00000000000E+00  0.00000000000E+00  0.39999999673E+01  0.40000000000E+01  0.51109989000E-03 0.  1.
     -623   -1    0    0    0    0  0.00000000000E+00  0.00000000000E+00  0.12525980253E-10  0.17130000000E+03  0.17130000000E+03 0.  1.
       11    1    1    2    0    0 -0.16659153247E-02 -0.44096270864E-03  0.27119599167E+00  0.27120194845E+00  0.51109989000E-03 0.  1.
     -623    1    1    2    0    0 -0.34986654440E-04 -0.88163904706E-04  0.36520353254E-04  0.17130000000E+03  0.17130000000E+03 0.  1.
      622    1    1    2    0    0  0.17009019791E-02  0.52912661338E-03  0.37287674570E+01  0.37287980532E+01  0.15000000000E-01 0.  1.
</event>
<event>
 5   0  0.2306700E+09  0.9118800E+02  0.7818608E-02  0.1180000E+00
       11   -1    0    0    0    0  0.00000000000E+00  0.00000000000E+00  0.39999999673E+01  0.40000000000E+01  0.51109989000E-03 0.  1.
     -623   -1    0    0    0    0  0.00000000000E+00  0.00000000000E+00  0.12525980253E-10  0.17130000000E+03  0.17130000000E+03 0.  1.
       11    1    1    2    0    0  0.62386229424E-02 -0.85473291901E-02  0.50705868679E+00  0.50716935073E+00  0.51109989000E-03 0.  1.
     -623    1    1    2    0    0 -0.14772073615E-02 -0.25997683827E-03  0.15719643814E-03  0.17130000001E+03  0.17130000000E+03 0.  1.
      622    1    1    2    0    0 -0.47614155809E-02  0.88073060284E-02  0.34927840841E+01  0.34928306426E+01  0.15000000000E-01 0.  0.
</event>
<event>
 5   0  0.2306700E+09  0.9118800E+02  0.7818608E-02  0.1180000E+00
       11   -1    0    0    0    0  0.00000000000E+00  0.00000000000E+00  0.39999999673E+01  0.40000000000E+01  0.51109989000E-03 0. -1.
     -623   -1    0    0    0    0  0.00000000000E+00  0.00000000000E+00  0.12525980253E-10  0.17130000000E+03  0.17130000000E+03 0.  1.
       11    1    1    2    0    0  0.38856792978E-03  0.37141908006E-02  0.11234777806E+00  0.11241098993E+00  0.51109989000E-03 0. -1.
     -623    1    1    2    0    0 -0.21030019510E-02 -0.19814328071E-02  0.92906171664E-04  0.17130000002E+03  0.17130000000E+03 0.  1.
      622    1    1    2    0    0  0.17144340205E-02 -0.17327579943E-02  0.38875592816E+01  0.38875889842E+01  0.15000000000E-01 0. -1.
</event>
<event>
 5   0  0.2306700E+09  0.9118800E+02  0.7818608E-02  0.1180000E+00
       11   -1    0    0    0    0  0.00000000000E+00  0.00000000000E+00  0.39999999673E+01  0.40000000000E+01  0.51109989000E-03 0. -1.
     -623   -1    0    0    0    0  0.00000000000E+00  0.00000000000E+00  0.12525980253E-10  0.17130000000E+03  0.17130000000E+03 0.  1.
       11    1    1    2    0    0 -0.69093831200E-02  0.57371045835E-02  0.11601682093E+01  0.11602030809E+01  0.51109989000E-03 0. -1.
     -623    1    1    2    0    0  0.16279617994E-03 -0.48529220518E-03  0.87326067082E-04  0.17130000000E+03  0.17130000000E+03 0.  1.
      622    1    1    2    0    0  0.67465869400E-02 -0.52518123783E-02  0.28397444320E+01  0.28397969183E+01  0.15000000000E-01 0. -1.
</event>
<event>
 5   0  0.2306700E+09  0.9118800E+02  0.7818608E-02  0.1180000E+00
       11   -1    0    0    0    0  0.00000000000E+00  0.00000000000E+00  0.39999999673E+01  0.40000000000E+01  0.51109989000E-03 0.  1.
     -623   -1    0    0    0    0  0.00000000000E+00  0.00000000000E+00  0.12525980253E-10  0.17130000000E+03  0.17130000000E+03 0. -1.
       11    1    1    2    0    0 -0.41892774494E-02  0.20286230039E-02  0.17116402504E+00  0.17122806443E+00  0.51109989000E-03 0.  1.
     -623    1    1    2    0    0 -0.13531439833E-02 -0.15763329893E-02  0.97440548732E-04  0.17130000001E+03  0.17130000000E+03 0. -1.
      622    1    1    2    0    0  0.55424214335E-02 -0.45229001371E-03  0.38287385042E+01  0.38287719254E+01  0.15000000000E-01 0.  1.
</event>
<event>
 5   0  0.2306700E+09  0.9118800E+02  0.7818608E-02  0.1180000E+00
       11   -1    0    0    0    0  0.00000000000E+00  0.00000000000E+00  0.39999999673E+01  0.40000000000E+01  0.51109989000E-03 0. -1.
     -623   -1    0    0    0    0  0.00000000000E+00  0.00000000000E+00  0.12525980253E-10  0.17130000000E+03  0.17130000000E+03 0.  1.
       11    1    1    2    0    0 -0.99718474966E-02 -0.23684316926E-02  0.29606343002E+00  0.29624122439E+00  0.51109989000E-03 0. -1.
     -623    1    1    2    0    0  0.70288468053E-02 -0.92410984856E-03  0.21091599550E-03  0.17130000015E+03  0.17130000000E+03 0.  1.
      622    1    1    2    0    0  0.29430006913E-02  0.32925415412E-02  0.37037256213E+01  0.37037586288E+01  0.15000000000E-01 0. -1.
</event>
<event>
 5   0  0.2306700E+09  0.9118800E+02  0.7818608E-02  0.1180000E+00
       11   -1    0    0    0    0  0.00000000000E+00  0.00000000000E+00  0.39999999673E+01  0.40000000000E+01  0.51109989000E-03 0.  1.
     -623   -1    0    0    0    0  0.00000000000E+00  0.00000000000E+00  0.12525980253E-10  0.17130000000E+03  0.17130000000E+03 0. -1.
       11    1    1    2    0    0 -0.57539106448E-03  0.30255641501E-03  0.59434515017E-01  0.59440267611E-01  0.51109989000E-03 0.  1.
     -623    1    1    2    0    0  0.28434470429E-03  0.20024414629E-03  0.34312483439E-04  0.17130000000E+03  0.17130000000E+03 0. -1.
      622    1    1    2    0    0  0.29104635909E-03 -0.50280056207E-03  0.39405311554E+01  0.39405597476E+01  0.15000000000E-01 0.  1.
</event>
<event>
 5   0  0.2306700E+09  0.9118800E+02  0.7818608E-02  0.1180000E+00
       11   -1    0    0    0    0  0.00000000000E+00  0.00000000000E+00  0.39999999673E+01  0.40000000000E+01  0.51109989000E-03 0.  1.
     -623   -1    0    0    0    0  0.00000000000E+00  0.00000000000E+00  0.12525980253E-10  0.17130000000E+03  0.17130000000E+03 0. -1.
       11    1    1    2    0    0  0.49525639828E-03  0.10719639640E-02  0.69983987550E-01  0.69995815025E-01  0.51109989000E-03 0.  1.
     -623    1    1    2    0    0  0.16898198501E-02 -0.96325020380E-03  0.41040868060E-04  0.17130000001E+03  0.17130000000E+03 0. -1.
      622    1    1    2    0    0 -0.21850762484E-02 -0.10871376015E-03  0.39299749389E+01  0.39300041739E+01  0.15000000000E-01 0.  1.
</event>
<event>
 5   0  0.2306700E+09  0.9118800E+02  0.7818608E-02  0.1180000E+00
       11   -1    0    0    0    0  0.00000000000E+00  0.00000000000E+00  0.39999999673E+01  0.40000000000E+01  0.51109989000E-03 0. -1.
     -623   -1    0    0    0    0  0.00000000000E+00  0.00000000000E+00  0.12525980253E-10  0.17130000000E+03  0.17130000000E+03 0. -1.
       11    1    1    2    0    0 -0.38049004597E-02  0.46184930926E-02  0.95213336049E+00  0.95215230144E+00  0.51109989000E-03 0. -1.
     -623    1    1    2    0    0  0.77998834942E-03 -0.15471925314E-02  0.58877174200E-04  0.17130000001E+03  0.17130000000E+03 0. -1.
      622    1    1    2    0    0  0.30249121101E-02 -0.30713005608E-02  0.30478077307E+01  0.30478476908E+01  0.15000000000E-01 0. -1.
</event>
<event>
 5   0  0.2306700E+09  0.9118800E+02  0.7818608E-02  0.1180000E+00
       11   -1    0    0    0    0  0.00000000000E+00  0.00000000000E+00  0.39999999673E+01  0.40000000000E+01  0.51109989000E-03 0.  1.
     -623   -1    0    0    0    0  0.00000000000E+00  0.00000000000E+00  0.12525980253E-10  0.17130000000E+03  0.17130000000E+03 0. -1.
       11    1    1    2    0    0 -0.59859587999E-03 -0.11442165028E-02  0.67852439920E-01  0.67866651418E-01  0.51109989000E-03 0.  1.
     -623    1    1    2    0    0  0.55776748394E-04 -0.14011303156E-03  0.43036672005E-04  0.17130000000E+03  0.17130000000E+03 0. -1.
      622    1    1    2    0    0  0.54281913140E-03  0.12843295348E-02  0.39321045049E+01  0.39321333626E+01  0.15000000000E-01 0.  1.
</event>
<event>
 5   0  0.2306700E+09  0.9118800E+02  0.7818608E-02  0.1180000E+00
       11   -1    0    0    0    0  0.00000000000E+00  0.00000000000E+00  0.39999999673E+01  0.40000000000E+01  0.51109989000E-03 0. -1.
     -623   -1    0    0    0    0  0.00000000000E+00  0.00000000000E+00  0.12525980253E-10  0.17130000000E+03  0.17130000000E+03 0. -1.
       11    1    1    2    0    0  0.62520819649E-03  0.28154460408E-03  0.84417427988E-02  0.84849512215E-02  0.51109989000E-03 0.  1.
     -623    1    1    2    0    0  0.83122372259E-03 -0.93234555142E-04  0.71632882775E-04  0.17130000000E+03  0.17130000000E+03 0. -1.
      622    1    1    2    0    0 -0.14564319181E-02 -0.18831004905E-03  0.39914865869E+01  0.39915150420E+01  0.15000000000E-01 0. -1.
</event>
<event>
 5   0  0.2306700E+09  0.9118800E+02  0.7818608E-02  0.1180000E+00
       11   -1    0    0    0    0  0.00000000000E+00  0.00000000000E+00  0.39999999673E+01  0.40000000000E+01  0.51109989000E-03 0.  1.
     -623   -1    0    0    0    0  0.00000000000E+00  0.00000000000E+00  0.12525980253E-10  0.17130000000E+03  0.17130000000E+03 0.  1.
       11    1    1    2    0    0  0.38163801372E-02  0.60062048350E-05  0.31230293096E+00  0.31232666665E+00  0.51109989000E-03 0.  1.
     -623    1    1    2    0    0  0.34166746205E-04 -0.55718523187E-04  0.56220899684E-04  0.17130000000E+03  0.17130000000E+03 0.  1.
      622    1    1    2    0    0 -0.38505468834E-02  0.49712318352E-04  0.36876408155E+01  0.36876733333E+01  0.15000000000E-01 0.  0.
</event>
<event>
 5   0  0.2306700E+09  0.9118800E+02  0.7818608E-02  0.1180000E+00
       11   -1    0    0    0    0  0.00000000000E+00  0.00000000000E+00  0.39999999673E+01  0.40000000000E+01  0.51109989000E-03 0.  1.
     -623   -1    0    0    0    0  0.00000000000E+00  0.00000000000E+00  0.12525980253E-10  0.17130000000E+03  0.17130000000E+03 0.  1.
       11    1    1    2    0    0  0.12091196348E-01 -0.12593290234E-02  0.73475972773E+00  0.73486046407E+00  0.51109989000E-03 0.  1.
     -623    1    1    2    0    0 -0.46466337605E-03  0.24896303169E-03  0.15601618116E-03  0.17130000000E+03  0.17130000000E+03 0.  1.
      622    1    1    2    0    0 -0.11626532972E-01  0.10103659915E-02  0.32650842264E+01  0.32651395380E+01  0.15000000000E-01 0.  1.
</event>
<event>
 5   0  0.2306700E+09  0.9118800E+02  0.7818608E-02  0.1180000E+00
       11   -1    0    0    0    0  0.00000000000E+00  0.00000000000E+00  0.39999999673E+01  0.40000000000E+01  0.51109989000E-03 0. -1.
     -623   -1    0    0    0    0  0.00000000000E+00  0.00000000000E+00  0.12525980253E-10  0.17130000000E+03  0.17130000000E+03 0.  1.
       11    1    1    2    0    0  0.11675544337E-02  0.11012096365E-02  0.19772391106E+00  0.19773108524E+00  0.51109989000E-03 0. -1.
     -623    1    1    2    0    0 -0.86766500858E-04 -0.13366100200E-03  0.37006046619E-04  0.17130000000E+03  0.17130000000E+03 0.  1.
      622    1    1    2    0    0 -0.10807879329E-02 -0.96754863445E-03  0.38022390503E+01  0.38022689147E+01  0.15000000000E-01 0. -1.
</event>
<event>
 5   0  0.2306700E+09  0.9118800E+02  0.7818608E-02  0.1180000E+00
       11   -1    0    0    0    0  0.00000000000E+00  0.00000000000E+00  0.39999999673E+01  0.40000000000E+01  0.51109989000E-03 0.  1.
     -623   -1    0    0    0    0  0.00000000000E+00  0.00000000000E+00  0.12525980253E-10  0.17130000000E+03  0.17130000000E+03 0.  1.
       11    1    1    2    0    0 -0.71243030410E-03 -0.13790434379E-03  0.34813973469E-02  0.35927600993E-02  0.51109989000E-03 0.  1.
     -623    1    1    2    0    0  0.17442242536E-02  0.14148595656E-02  0.13983248286E-03  0.17130000001E+03  0.17130000000E+03 0.  1.
      622    1    1    2    0    0 -0.10317939503E-02 -0.12769552225E-02  0.39963787395E+01  0.39964072271E+01  0.15000000000E-01 0.  1.
</event>
<event>
 5   0  0.2306700E+09  0.9118800E+02  0.7818608E-02  0.1180000E+00
       11   -1    0    0    0    0  0.00000000000E+00  0.00000000000E+00  0.39999999673E+01  0.40000000000E+01  0.51109989000E-03 0. -1.
     -623   -1    0    0    0    0  0.00000000000E+00  0.00000000000E+00  0.12525980253E-10  0.17130000000E+03  0.17130000000E+03 0.  1.
       11    1    1    2    0    0  0.20262490707E-02 -0.16807905002E-02  0.77224513603E+00  0.77224979255E+00  0.51109989000E-03 0. -1.
     -623    1    1    2    0    0  0.15075084967E-01 -0.16898271687E-01  0.13975182143E-03  0.17130000150E+03  0.17130000000E+03 0.  1.
      622    1    1    2    0    0 -0.17101334058E-01  0.18579062211E-01  0.32276150851E+01  0.32277487161E+01  0.15000000000E-01 0. -1.
</event>
<event>
 5   0  0.2306700E+09  0.9118800E+02  0.7818608E-02  0.1180000E+00
       11   -1    0    0    0    0  0.00000000000E+00  0.00000000000E+00  0.39999999673E+01  0.40000000000E+01  0.51109989000E-03 0.  1.
     -623   -1    0    0    0    0  0.00000000000E+00  0.00000000000E+00  0.12525980253E-10  0.17130000000E+03  0.17130000000E+03 0.  1.
       11    1    1    2    0    0 -0.12415162409E-03 -0.14119843493E-03  0.67141998052E-02  0.67362491600E-02  0.51109989000E-03 0.  1.
     -623    1    1    2    0    0  0.15769868944E-03  0.16576393052E-03  0.50189634830E-04  0.17130000000E+03  0.17130000000E+03 0.  1.
      622    1    1    2    0    0 -0.33547065329E-04 -0.24565495570E-04  0.39932355775E+01  0.39932637503E+01  0.15000000000E-01 0.  1.
</event>
<event>
 5   0  0.2306700E+09  0.9118800E+02  0.7818608E-02  0.1180000E+00
       11   -1    0    0    0    0  0.00000000000E+00  0.00000000000E+00  0.39999999673E+01  0.40000000000E+01  0.51109989000E-03 0. -1.
     -623   -1    0    0    0    0  0.00000000000E+00  0.00000000000E+00  0.12525980253E-10  0.17130000000E+03  0.17130000000E+03 0. -1.
       11    1    1    2    0    0  0.19390323529E-02  0.21861856366E-02  0.48466474701E+00  0.48467382586E+00  0.51109989000E-03 0. -1.
     -623    1    1    2    0    0 -0.23949052747E-03  0.13759131074E-03  0.42228204465E-04  0.17130000000E+03  0.17130000000E+03 0. -1.
      622    1    1    2    0    0 -0.16995418254E-02 -0.23237769474E-02  0.35152929923E+01  0.35153261741E+01  0.15000000000E-01 0. -1.
</event>
<event>
 5   0  0.2306700E+09  0.9118800E+02  0.7818608E-02  0.1180000E+00
       11   -1    0    0    0    0  0.00000000000E+00  0.00000000000E+00  0.39999999673E+01  0.40000000000E+01  0.51109989000E-03 0. -1.
     -623   -1    0    0    0    0  0.00000000000E+00  0.00000000000E+00  0.12525980253E-10  0.17130000000E+03  0.17130000000E+03 0. -1.
       11    1    1    2    0    0 -0.17120065551E-02  0.13673863289E-02  0.78317472674E-01  0.78349782761E-01  0.51109989000E-03 0. -1.
     -623    1    1    2    0    0  0.57362822964E-03  0.45553784475E-03  0.61554941433E-04  0.17130000000E+03  0.17130000000E+03 0. -1.
      622    1    1    2    0    0  0.11383783255E-02 -0.18229241737E-02  0.39216209397E+01  0.39216502157E+01  0.15000000000E-01 0. -1.
</event>
<event>
 5   0  0.2306700E+09  0.9118800E+02  0.7818608E-02  0.1180000E+00
       11   -1    0    0    0    0  0.00000000000E+00  0.00000000000E+00  0.39999999673E+01  0.40000000000E+01  0.51109989000E-03 0.  1.
     -623   -1    0    0    0    0  0.00000000000E+00  0.00000000000E+00  0.12525980253E-10  0.17130000000E+03  0.17130000000E+03 0.  1.
       11    1    1    2    0    0 -0.13580949820E-02  0.22728622578E-02  0.12521697963E+00  0.12524601205E+00  0.51109989000E-03 0.  1.
     -623    1    1    2    0    0 -0.58121405757E-03 -0.50751371318E-03  0.58923208965E-04  0.17130000000E+03  0.17130000000E+03 0.  1.
      622    1    1    2    0    0  0.19393090392E-02 -0.17653485450E-02  0.38747240622E+01  0.38747539839E+01  0.15000000000E-01 0.  1.
</event>
<event>
 5   0  0.2306700E+09  0.9118800E+02  0.7818608E-02  0.1180000E+00
       11   -1    0    0    0    0  0.00000000000E+00  0.00000000000E+00  0.39999999673E+01  0.40000000000E+01  0.51109989000E-03 0.  1.
     -623   -1    0    0    0    0  0.00000000000E+00  0.00000000000E+00  0.12525980253E-10  0.17130000000E+03  0.17130000000E+03 0.  1.
       11    1    1    2    0    0 -0.11786740727E-02  0.36362647003E-02  0.21881105864E+00  0.21884504175E+00  0.51109989000E-03 0.  1.
     -623    1    1    2    0    0  0.18379484865E-02  0.21230863787E-03  0.65729496000E-04  0.17130000001E+03  0.17130000000E+03 0.  1.
      622    1    1    2    0    0 -0.65927441760E-03 -0.38485733386E-02  0.37811231875E+01  0.37811549565E+01  0.15000000000E-01 0.  1.
</event>
<event>
 5   0  0.2306700E+09  0.9118800E+02  0.7818608E-02  0.1180000E+00
       11   -1    0    0    0    0  0.00000000000E+00  0.00000000000E+00  0.39999999673E+01  0.40000000000E+01  0.51109989000E-03 0.  1.
     -623   -1    0    0    0    0  0.00000000000E+00  0.00000000000E+00  0.12525980253E-10  0.17130000000E+03  0.17130000000E+03 0. -1.
       11    1    1    2    0    0  0.36300686562E-03 -0.14060553796E-03  0.66460997231E-01  0.66464102484E-01  0.51109989000E-03 0.  1.
     -623    1    1    2    0    0 -0.20374323292E-03 -0.22455685194E-03  0.31693384123E-04  0.17130000000E+03  0.17130000000E+03 0. -1.
      622    1    1    2    0    0 -0.15926363269E-03  0.36516238990E-03  0.39335072767E+01  0.39335358972E+01  0.15000000000E-01 0.  1.
</event>
<event>
 5   0  0.2306700E+09  0.9118800E+02  0.7818608E-02  0.1180000E+00
       11   -1    0    0    0    0  0.00000000000E+00  0.00000000000E+00  0.39999999673E+01  0.40000000000E+01  0.51109989000E-03 0.  1.
     -623   -1    0    0    0    0  0.00000000000E+00  0.00000000000E+00  0.12525980253E-10  0.17130000000E+03  0.17130000000E+03 0. -1.
       11    1    1    2    0    0  0.49781577195E-03  0.66211288982E-03  0.29501085136E-01  0.29517138434E-01  0.51109989000E-03 0.  1.
     -623    1    1    2    0    0 -0.47358722838E-03  0.13674305740E-03  0.44435997887E-04  0.17130000000E+03  0.17130000000E+03 0. -1.
      622    1    1    2    0    0 -0.24228543073E-04 -0.79885594737E-03  0.39704544504E+01  0.39704828650E+01  0.15000000000E-01 0.  1.
</event>
<event>
 5   0  0.2306700E+09  0.9118800E+02  0.7818608E-02  0.1180000E+00
       11   -1    0    0    0    0  0.00000000000E+00  0.00000000000E+00  0.39999999673E+01  0.40000000000E+01  0.51109989000E-03 0.  1.
     -623   -1    0    0    0    0  0.00000000000E+00  0.00000000000E+00  0.12525980253E-10  0.17130000000E+03  0.17130000000E+03 0.  1.
       11    1    1    2    0    0  0.19004527767E-03 -0.88999758183E-03  0.82336580831E-01  0.82343196301E-01  0.51109989000E-03 0.  1.
     -623    1    1    2    0    0 -0.28029812186E-03 -0.61168677554E-04  0.35415830943E-04  0.17130000000E+03  0.17130000000E+03 0.  1.
      622    1    1    2    0    0  0.90252844189E-04  0.95116625939E-03  0.39176279707E+01  0.39176568035E+01  0.15000000000E-01 0.  1.
</event>
<event>
 5   0  0.2306700E+09  0.9118800E+02  0.7818608E-02  0.1180000E+00
       11   -1    0    0    0    0  0.00000000000E+00  0.00000000000E+00  0.39999999673E+01  0.40000000000E+01  0.51109989000E-03 0. -1.
     -623   -1    0    0    0    0  0.00000000000E+00  0.00000000000E+00  0.12525980253E-10  0.17130000000E+03  0.17130000000E+03 0. -1.
       11    1    1    2    0    0 -0.18680343154E-02 -0.23070233566E-02  0.19936235468E+00  0.19938510877E+00  0.51109989000E-03 0. -1.
     -623    1    1    2    0    0 -0.21739333806E-02  0.91834990030E-03  0.54741335236E-04  0.17130000002E+03  0.17130000000E+03 0. -1.
      622    1    1    2    0    0  0.40419676973E-02  0.13886734558E-02  0.38005828737E+01  0.38006148773E+01  0.15000000000E-01 0. -1.
</event>
<event>
 5   0  0.2306700E+09  0.9118800E+02  0.7818608E-02  0.1180000E+00
       11   -1    0    0    0    0  0.00000000000E+00  0.00000000000E+00  0.39999999673E+01  0.40000000000E+01  0.51109989000E-03 0. -1.
     -623   -1    0    0    0    0  0.00000000000E+00  0.00000000000E+00  0.12525980253E-10  0.17130000000E+03  0.17130000000E+03 0. -1.
       11    1    1    2    0    0 -0.45467835210E-02  0.11745911058E-02  0.29159511571E+00  0.29163337537E+00  0.51109989000E-03 0. -1.
     -623    1    1    2    0    0 -0.14858409285E-02 -0.21879180117E-02  0.73629699762E-04  0.17130000002E+03  0.17130000000E+03 0. -1.
      622    1    1    2    0    0  0.60326244524E-02  0.10133269102E-02  0.37083312298E+01  0.37083666121E+01  0.15000000000E-01 0. -1.
</event>
<event>
 5   0  0.2306700E+09  0.9118800E+02  0.7818608E-02  0.1180000E+00
       11   -1    0    0    0    0  0.00000000000E+00  0.00000000000E+00  0.39999999673E+01  0.40000000000E+01  0.51109989000E-03 0.  1.
     -623   -1    0    0    0    0  0.00000000000E+00  0.00000000000E+00  0.12525980253E-10  0.17130000000E+03  0.17130000000E+03 0.  1.
       11    1    1    2    0    0  0.19709933781E-02 -0.63695684459E-03  0.24666108505E+00  0.24667031161E+00  0.51109989000E-03 0.  1.
     -623    1    1    2    0    0 -0.42856338777E-03  0.21512072634E-03  0.39508740469E-04  0.17130000000E+03  0.17130000000E+03 0.  1.
      622    1    1    2    0    0 -0.15424299907E-02  0.42183611842E-03  0.37532993702E+01  0.37533296844E+01  0.15000000000E-01 0.  1.
</event>
<event>
 5   0  0.2306700E+09  0.9118800E+02  0.7818608E-02  0.1180000E+00
       11   -1    0    0    0    0  0.00000000000E+00  0.00000000000E+00  0.39999999673E+01  0.40000000000E+01  0.51109989000E-03 0. -1.
     -623   -1    0    0    0    0  0.00000000000E+00  0.00000000000E+00  0.12525980253E-10  0.17130000000E+03  0.17130000000E+03 0. -1.
       11    1    1    2    0    0 -0.21152815255E-01  0.30515242942E-02  0.92381755752E+00  0.92406487553E+00  0.51109989000E-03 0. -1.
     -623    1    1    2    0    0  0.23659997002E-01  0.51994258514E-02  0.29766121410E-03  0.17130000171E+03  0.17130000000E+03 0. -1.
      622    1    1    2    0    0 -0.25071817587E-02 -0.82509501482E-02  0.30758847507E+01  0.30759334134E+01  0.15000000000E-01 0.  1.
</event>
<event>
 5   0  0.2306700E+09  0.9118800E+02  0.7818608E-02  0.1180000E+00
       11   -1    0    0    0    0  0.00000000000E+00  0.00000000000E+00  0.39999999673E+01  0.40000000000E+01  0.51109989000E-03 0.  1.
     -623   -1    0    0    0    0  0.00000000000E+00  0.00000000000E+00  0.12525980253E-10  0.17130000000E+03  0.17130000000E+03 0.  1.
       11    1    1    2    0    0 -0.39491062931E-02  0.42734196562E-02  0.11328836650E+00  0.11343885033E+00  0.51109989000E-03 0.  1.
     -623    1    1    2    0    0 -0.29362218766E-03 -0.24568510702E-03  0.18380053882E-03  0.17130000000E+03  0.17130000000E+03 0.  1.
      622    1    1    2    0    0  0.42427284807E-02 -0.40277345491E-02  0.38865278004E+01  0.38865611492E+01  0.15000000000E-01 0.  1.
</event>
<event>
 5   0  0.2306700E+09  0.9118800E+02  0.7818608E-02  0.1180000E+00
       11   -1    0    0    0    0  0.00000000000E+00  0.00000000000E+00  0.39999999673E+01  0.40000000000E+01  0.51109989000E-03 0. -1.
     -623   -1    0    0    0    0  0.00000000000E+00  0.00000000000E+00  0.12525980253E-10  0.17130000000E+03  0.17130000000E+03 0. -1.
       11    1    1    2    0    0 -0.78916392720E-03  0.17526993342E-03  0.41946502906E-02  0.43023030840E-02  0.51109989000E-03 0. -1.
     -623    1    1    2    0    0 -0.47648998871E-03 -0.39693783468E-03  0.13598331284E-03  0.17130000000E+03  0.17130000000E+03 0. -1.
      622    1    1    2    0    0  0.12656539159E-02  0.22166790126E-03  0.39956693338E+01  0.39956976957E+01  0.15000000000E-01 0. -1.
</event>
<event>
 5   0  0.2306700E+09  0.9118800E+02  0.7818608E-02  0.1180000E+00
       11   -1    0    0    0    0  0.00000000000E+00  0.00000000000E+00  0.39999999673E+01  0.40000000000E+01  0.51109989000E-03 0. -1.
     -623   -1    0    0    0    0  0.00000000000E+00  0.00000000000E+00  0.12525980253E-10  0.17130000000E+03  0.17130000000E+03 0. -1.
       11    1    1    2    0    0  0.13463274777E-02 -0.16239732103E-02  0.50217949175E-02  0.54707890543E-02  0.51109989000E-03 0. -1.
     -623    1    1    2    0    0 -0.16593434585E-02  0.23422251804E-02  0.47722666865E-03  0.17130000002E+03  0.17130000000E+03 0. -1.
      622    1    1    2    0    0  0.31301598072E-03 -0.71825197007E-03  0.39945009458E+01  0.39945291862E+01  0.15000000000E-01 0. -1.
</event>
<event>
 5   0  0.2306700E+09  0.9118800E+02  0.7818608E-02  0.1180000E+00
       11   -1    0    0    0    0  0.00000000000E+00  0.00000000000E+00  0.39999999673E+01  0.40000000000E+01  0.51109989000E-03 0.  1.
     -623   -1    0    0    0    0  0.00000000000E+00  0.00000000000E+00  0.12525980253E-10  0.17130000000E+03  0.17130000000E+03 0.  1.
       11    1    1    2    0    0  0.95457256223E-03 -0.21716569456E-02  0.92756806450E-01  0.92788542766E-01  0.51109989000E-03 0.  1.
     -623    1    1    2    0    0  0.71653157876E-03  0.10941617713E-01  0.71047446405E-04  0.17130000035E+03  0.17130000000E+03 0.  1.
      622    1    1    2    0    0 -0.16711041421E-02 -0.87699607834E-02  0.39071721194E+01  0.39072111122E+01  0.15000000000E-01 0.  1.
</event>
<event>
 5   0  0.2306700E+09  0.9118800E+02  0.7818608E-02  0.1180000E+00
       11   -1    0    0    0    0  0.00000000000E+00  0.00000000000E+00  0.39999999673E+01  0.40000000000E+01  0.51109989000E-03 0. -1.
     -623   -1    0    0    0    0  0.00000000000E+00  0.00000000000E+00  0.12525980253E-10  0.17130000000E+03  0.17130000000E+03 0.  1.
       11    1    1    2    0    0 -0.26818191061E-02 -0.36983218353E-02  0.16292059384E+00  0.16298543142E+00  0.51109989000E-03 0. -1.
     -623    1    1    2    0    0 -0.31962768017E-03  0.34624317673E-02  0.95341220784E-04  0.17130000004E+03  0.17130000000E+03 0.  1.
      622    1    1    2    0    0  0.30014467863E-02  0.23589006803E-03  0.38369840323E+01  0.38370145333E+01  0.15000000000E-01 0. -1.
</event>
<event>
 5   0  0.2306700E+09  0.9118800E+02  0.7818608E-02  0.1180000E+00
       11   -1    0    0    0    0  0.00000000000E+00  0.00000000000E+00  0.39999999673E+01  0.40000000000E+01  0.51109989000E-03 0.  1.
     -623   -1    0    0    0    0  0.00000000000E+00  0.00000000000E+00  0.12525980253E-10  0.17130000000E+03  0.17130000000E+03 0.  1.
       11    1    1    2    0    0  0.68579371118E-03  0.98034025990E-03  0.32973197784E-01  0.32998854110E-01  0.51109989000E-03 0.  1.
     -623    1    1    2    0    0 -0.98760831593E-04  0.56984927895E-04  0.54161847230E-04  0.17130000000E+03  0.17130000000E+03 0.  1.
      622    1    1    2    0    0 -0.58703287958E-03 -0.10373251878E-02  0.39669726077E+01  0.39670011458E+01  0.15000000000E-01 0.  1.
</event>
<event>
 5   0  0.2306700E+09  0.9118800E+02  0.7818608E-02  0.1180000E+00
       11   -1    0    0    0    0  0.00000000000E+00  0.00000000000E+00  0.39999999673E+01  0.40000000000E+01  0.51109989000E-03 0.  1.
     -623   -1    0    0    0    0  0.00000000000E+00  0.00000000000E+00  0.12525980253E-10  0.17130000000E+03  0.17130000000E+03 0. -1.
       11    1    1    2    0    0 -0.17141435079E-02  0.18683178056E-01  0.95987217496E+00  0.96005565095E+00  0.51109989000E-03 0.  1.
     -623    1    1    2    0    0  0.13077372021E-01  0.22985327441E-01  0.52932511923E-03  0.17130000204E+03  0.17130000000E+03 0. -1.
      622    1    1    2    0    0 -0.11363228514E-01 -0.41668505500E-01  0.30395984677E+01  0.30399423073E+01  0.15000000000E-01 0.  1.
</event>
<event>
 5   0  0.2306700E+09  0.9118800E+02  0.7818608E-02  0.1180000E+00
       11   -1    0    0    0    0  0.00000000000E+00  0.00000000000E+00  0.39999999673E+01  0.40000000000E+01  0.51109989000E-03 0. -1.
     -623   -1    0    0    0    0  0.00000000000E+00  0.00000000000E+00  0.12525980253E-10  0.17130000000E+03  0.17130000000E+03 0.  1.
       11    1    1    2    0    0 -0.29777463182E-02 -0.27955119270E-02  0.62395256402E+00  0.62396614109E+00  0.51109989000E-03 0. -1.
     -623    1    1    2    0    0  0.98921408057E-04 -0.48943545403E-04  0.49293498730E-04  0.17130000000E+03  0.17130000000E+03 0.  1.
      622    1    1    2    0    0  0.28788249101E-02  0.28444554724E-02  0.33759981098E+01  0.33760338589E+01  0.15000000000E-01 0. -1.
</event>
<event>
 5   0  0.2306700E+09  0.9118800E+02  0.7818608E-02  0.1180000E+00
       11   -1    0    0    0    0  0.00000000000E+00  0.00000000000E+00  0.39999999673E+01  0.40000000000E+01  0.51109989000E-03 0.  1.
     -623   -1    0    0    0    0  0.00000000000E+00  0.00000000000E+00  0.12525980253E-10  0.17130000000E+03  0.17130000000E+03 0. -1.
       11    1    1    2    0    0  0.10914590485E-01 -0.51848946302E-02  0.94312579510E-01  0.95084884680E-01  0.51109989000E-03 0.  1.
     -623    1    1    2    0    0 -0.16215408508E-01 -0.52050293998E-02  0.81935142958E-03  0.17130000085E+03  0.17130000000E+03 0. -1.
      622    1    1    2    0    0  0.53008180231E-02  0.10389924030E-01  0.39048680365E+01  0.39049142669E+01  0.15000000000E-01 0.  1.
</event>
<event>
 5   0  0.2306700E+09  0.9118800E+02  0.7818608E-02  0.1180000E+00
       11   -1    0    0    0    0  0.00000000000E+00  0.00000000000E+00  0.39999999673E+01  0.40000000000E+01  0.51109989000E-03 0. -1.
     -623   -1    0    0    0    0  0.00000000000E+00  0.00000000000E+00  0.12525980253E-10  0.17130000000E+03  0.17130000000E+03 0. -1.
       11    1    1    2    0    0  0.49843372711E-03 -0.57925860600E-04  0.12134598196E-01  0.12155718328E-01  0.51109989000E-03 0. -1.
     -623    1    1    2    0    0 -0.77973158361E-04  0.56373553670E-04  0.49320522016E-04  0.17130000000E+03  0.17130000000E+03 0. -1.
      622    1    1    2    0    0 -0.42046056868E-03  0.15523068775E-05  0.39878160523E+01  0.39878442853E+01  0.15000000000E-01 0. -1.
</event>
<event>
 5   0  0.2306700E+09  0.9118800E+02  0.7818608E-02  0.1180000E+00
       11   -1    0    0    0    0  0.00000000000E+00  0.00000000000E+00  0.39999999673E+01  0.40000000000E+01  0.51109989000E-03 0.  1.
     -623   -1    0    0    0    0  0.00000000000E+00  0.00000000000E+00  0.12525980253E-10  0.17130000000E+03  0.17130000000E+03 0. -1.
       11    1    1    2    0    0 -0.47089991066E-02 -0.43591037027E-03  0.11981895635E+01  0.11981990051E+01  0.51109989000E-03 0.  1.
     -623    1    1    2    0    0 -0.39112298114E-02  0.67540766337E-02  0.70124919886E-04  0.17130000018E+03  0.17130000000E+03 0. -1.
      622    1    1    2    0    0  0.86202289180E-02 -0.63181662635E-02  0.28017402790E+01  0.28018008171E+01  0.15000000000E-01 0.  0.
</event>
<event>
 5   0  0.2306700E+09  0.9118800E+02  0.7818608E-02  0.1180000E+00
       11   -1    0    0    0    0  0.00000000000E+00  0.00000000000E+00  0.39999999673E+01  0.40000000000E+01  0.51109989000E-03 0. -1.
     -623   -1    0    0    0    0  0.00000000000E+00  0.00000000000E+00  0.12525980253E-10  0.17130000000E+03  0.17130000000E+03 0.  1.
       11    1    1    2    0    0 -0.11253297338E-02  0.24063583307E-03  0.10890025907E+01  0.10890033187E+01  0.51109989000E-03 0. -1.
     -623    1    1    2    0    0  0.36419743952E-02 -0.53895170069E-03  0.40484857737E-04  0.17130000004E+03  0.17130000000E+03 0.  1.
      622    1    1    2    0    0 -0.25166446613E-02  0.29831586762E-03  0.29109568918E+01  0.29109966417E+01  0.15000000000E-01 0. -1.
</event>
<event>
 5   0  0.2306700E+09  0.9118800E+02  0.7818608E-02  0.1180000E+00
       11   -1    0    0    0    0  0.00000000000E+00  0.00000000000E+00  0.39999999673E+01  0.40000000000E+01  0.51109989000E-03 0. -1.
     -623   -1    0    0    0    0  0.00000000000E+00  0.00000000000E+00  0.12525980253E-10  0.17130000000E+03  0.17130000000E+03 0.  1.
       11    1    1    2    0    0  0.10138741423E-02  0.19126192651E-03  0.36619487078E-01  0.36637584239E-01  0.51109989000E-03 0. -1.
     -623    1    1    2    0    0  0.58720800352E-04 -0.73821971143E-04  0.46596522021E-04  0.17130000000E+03  0.17130000000E+03 0.  1.
      622    1    1    2    0    0 -0.10725949425E-02 -0.11743995554E-03  0.39633338745E+01  0.39633624064E+01  0.15000000000E-01 0. -1.
</event>
<event>
 5   0  0.2306700E+09  0.9118800E+02  0.7818608E-02  0.1180000E+00
       11   -1    0    0    0    0  0.00000000000E+00  0.00000000000E+00  0.39999999673E+01  0.40000000000E+01  0.51109989000E-03 0. -1.
     -623   -1    0    0    0    0  0.00000000000E+00  0.00000000000E+00  0.12525980253E-10  0.17130000000E+03  0.17130000000E+03 0.  1.
       11    1    1    2    0    0  0.31680156726E-02  0.12014156739E-02  0.18681605721E-01  0.18993244545E-01  0.51109989000E-03 0. -1.
     -623    1    1    2    0    0 -0.80468305739E-03  0.16859386818E-02  0.34162457953E-03  0.17130000001E+03  0.17130000000E+03 0.  1.
      622    1    1    2    0    0 -0.23633326149E-02 -0.28873543562E-02  0.39809767383E+01  0.39810067461E+01  0.15000000000E-01 0. -1.
</event>
<event>
 5   0  0.2306700E+09  0.9118800E+02  0.7818608E-02  0.1180000E+00
       11   -1    0    0    0    0  0.00000000000E+00  0.00000000000E+00  0.39999999673E+01  0.40000000000E+01  0.51109989000E-03 0.  1.
     -623   -1    0    0    0    0  0.00000000000E+00  0.00000000000E+00  0.12525980253E-10  0.17130000000E+03  0.17130000000E+03 0. -1.
       11    1    1    2    0    0 -0.30290200092E-03 -0.76728516484E-03  0.15441396680E-01  0.15471859282E-01  0.51109989000E-03 0.  1.
     -623    1    1    2    0    0  0.27029608377E-03 -0.33497265389E-03  0.58817417836E-04  0.17130000000E+03  0.17130000000E+03 0. -1.
      622    1    1    2    0    0  0.32605917158E-04  0.11022578187E-02  0.39844997533E+01  0.39845281402E+01  0.15000000000E-01 0.  1.
</event>
<event>
 5   0  0.2306700E+09  0.9118800E+02  0.7818608E-02  0.1180000E+00
       11   -1    0    0    0    0  0.00000000000E+00  0.00000000000E+00  0.39999999673E+01  0.40000000000E+01  0.51109989000E-03 0.  1.
     -623   -1    0    0    0    0  0.00000000000E+00  0.00000000000E+00  0.12525980253E-10  0.17130000000E+03  0.17130000000E+03 0.  1.
       11    1    1    2    0    0  0.39385001480E-02 -0.57880456906E-02  0.46439051853E+00  0.46444356835E+00  0.51109989000E-03 0.  1.
     -623    1    1    2    0    0 -0.39416470648E-02  0.93557656936E-02  0.86937889116E-04  0.17130000030E+03  0.17130000000E+03 0.  1.
      622    1    1    2    0    0  0.31469168351E-05 -0.35677200030E-02  0.35355225109E+01  0.35355561308E+01  0.15000000000E-01 0.  1.
</event>
<event>
 5   0  0.2306700E+09  0.9118800E+02  0.7818608E-02  0.1180000E+00
       11   -1    0    0    0    0  0.00000000000E+00  0.00000000000E+00  0.39999999673E+01  0.40000000000E+01  0.51109989000E-03 0. -1.
     -623   -1    0    0    0    0  0.00000000000E+00  0.00000000000E+00  0.12525980253E-10  0.17130000000E+03  0.17130000000E+03 0.  1.
       11    1    1    2    0    0 -0.91027572933E-04 -0.36306815114E-03  0.80097856511E-02  0.80347989257E-02  0.51109989000E-03 0. -1.
     -623    1    1    2    0    0 -0.14195754473E-03  0.13866629437E-03  0.53175571513E-04  0.17130000000E+03  0.17130000000E+03 0.  1.
      622    1    1    2    0    0  0.23298511798E-03  0.22440185646E-03  0.39919370152E+01  0.39919652100E+01  0.15000000000E-01 0. -1.
</event>
<event>
 5   0  0.2306700E+09  0.9118800E+02  0.7818608E-02  0.1180000E+00
       11   -1    0    0    0    0  0.00000000000E+00  0.00000000000E+00  0.39999999673E+01  0.40000000000E+01  0.51109989000E-03 0.  1.
     -623   -1    0    0    0    0  0.00000000000E+00  0.00000000000E+00  0.12525980253E-10  0.17130000000E+03  0.17130000000E+03 0. -1.
       11    1    1    2    0    0 -0.14347424437E-01 -0.96972193647E-02  0.95656079383E+00  0.95671766899E+00  0.51109989000E-03 0.  1.
     -623    1    1    2    0    0  0.23787861370E-03  0.53846350383E-03  0.24030113649E-03  0.17130000000E+03  0.17130000000E+03 0. -1.
      622    1    1    2    0    0  0.14109545823E-01  0.91587558609E-02  0.30431988724E+01  0.30432823298E+01  0.15000000000E-01 0.  0.
</event>
<event>
 5   0  0.2306700E+09  0.9118800E+02  0.7818608E-02  0.1180000E+00
       11   -1    0    0    0    0  0.00000000000E+00  0.00000000000E+00  0.39999999673E+01  0.40000000000E+01  0.51109989000E-03 0. -1.
     -623   -1    0    0    0    0  0.00000000000E+00  0.00000000000E+00  0.12525980253E-10  0.17130000000E+03  0.17130000000E+03 0. -1.
       11    1    1    2    0    0  0.22196548146E-05  0.77768530706E-03  0.49774276210E+00  0.49774363205E+00  0.51109989000E-03 0. -1.
     -623    1    1    2    0    0  0.10501771834E-03 -0.16111154190E-03  0.33015632194E-04  0.17130000000E+03  0.17130000000E+03 0. -1.
      622    1    1    2    0    0 -0.10723737359E-03 -0.61657376449E-03  0.35022242064E+01  0.35022563846E+01  0.15000000000E-01 0. -1.
</event>
<event>
 5   0  0.2306700E+09  0.9118800E+02  0.7818608E-02  0.1180000E+00
       11   -1    0    0    0    0  0.00000000000E+00  0.00000000000E+00  0.39999999673E+01  0.40000000000E+01  0.51109989000E-03 0.  1.
     -623   -1    0    0    0    0  0.00000000000E+00  0.00000000000E+00  0.12525980253E-10  0.17130000000E+03  0.17130000000E+03 0.  1.
       11    1    1    2    0    0 -0.60341059233E-03  0.31716723628E-03  0.19875186936E+00  0.19875369555E+00  0.51109989000E-03 0.  1.
     -623    1    1    2    0    0  0.61585059575E-03 -0.16113845289E-03  0.31393634506E-04  0.17130000000E+03  0.17130000000E+03 0.  1.
      622    1    1    2    0    0 -0.12440003739E-04 -0.15602878331E-03  0.38012167064E+01  0.38012463053E+01  0.15000000000E-01 0.  1.
</event>
<event>
 5   0  0.2306700E+09  0.9118800E+02  0.7818608E-02  0.1180000E+00
       11   -1    0    0    0    0  0.00000000000E+00  0.00000000000E+00  0.39999999673E+01  0.40000000000E+01  0.51109989000E-03 0.  1.
     -623   -1    0    0    0    0  0.00000000000E+00  0.00000000000E+00  0.12525980253E-10  0.17130000000E+03  0.17130000000E+03 0.  1.
       11    1    1    2    0    0  0.45094428887E-02  0.39558901549E-02  0.32340407984E-01  0.32896008127E-01  0.51109989000E-03 0.  1.
     -623    1    1    2    0    0 -0.36298739640E-03 -0.16536389178E-02  0.58677021193E-03  0.17130000001E+03  0.17130000000E+03 0.  1.
      622    1    1    2    0    0 -0.41464554923E-02 -0.23022512371E-02  0.39670727892E+01  0.39671039825E+01  0.15000000000E-01 0.  1.
</event>
<event>
 5   0  0.2306700E+09  0.9118800E+02  0.7818608E-02  0.1180000E+00
       11   -1    0    0    0    0  0.00000000000E+00  0.00000000000E+00  0.39999999673E+01  0.40000000000E+01  0.51109989000E-03 0. -1.
     -623   -1    0    0    0    0  0.00000000000E+00  0.00000000000E+00  0.12525980253E-10  0.17130000000E+03  0.17130000000E+03 0. -1.
       11    1    1    2    0    0  0.92018178864E-02 -0.31920162384E-02  0.42147105510E-01  0.43260861557E-01  0.51109989000E-03 0. -1.
     -623    1    1    2    0    0 -0.26444862100E-02  0.14125537584E-02  0.11480198711E-02  0.17130000003E+03  0.17130000000E+03 0. -1.
      622    1    1    2    0    0 -0.65573316764E-02  0.17794624800E-02  0.39567048420E+01  0.39567391084E+01  0.15000000000E-01 0. -1.
</event>
<event>
 5   0  0.2306700E+09  0.9118800E+02  0.7818608E-02  0.1180000E+00
       11   -1    0    0    0    0  0.00000000000E+00  0.00000000000E+00  0.39999999673E+01  0.40000000000E+01  0.51109989000E-03 0. -1.
     -623   -1    0    0    0    0  0.00000000000E+00  0.00000000000E+00  0.12525980253E-10  0.17130000000E+03  0.17130000000E+03 0. -1.
       11    1    1    2    0    0 -0.39217866177E-03 -0.33342339657E-03  0.56620769641E-02  0.57083547463E-02  0.51109989000E-03 0. -1.
     -623    1    1    2    0    0  0.45546641754E-03  0.19058298376E-04  0.74423930556E-04  0.17130000000E+03  0.17130000000E+03 0. -1.
      622    1    1    2    0    0 -0.63287756054E-04  0.31436509818E-03  0.39942634690E+01  0.39942916471E+01  0.15000000000E-01 0. -1.
</event>
<event>
 5   0  0.2306700E+09  0.9118800E+02  0.7818608E-02  0.1180000E+00
       11   -1    0    0    0    0  0.00000000000E+00  0.00000000000E+00  0.39999999673E+01  0.40000000000E+01  0.51109989000E-03 0. -1.
     -623   -1    0    0    0    0  0.00000000000E+00  0.00000000000E+00  0.12525980253E-10  0.17130000000E+03  0.17130000000E+03 0.  1.
       11    1    1    2    0    0 -0.92323416210E-03 -0.24517933468E-02  0.30642295259E-01  0.30758334379E-01  0.51109989000E-03 0. -1.
     -623    1    1    2    0    0 -0.79846813152E-04 -0.87280687551E-03  0.14587091524E-03  0.17130000000E+03  0.17130000000E+03 0.  1.
      622    1    1    2    0    0  0.10030809753E-02  0.33246002224E-02  0.39692118016E+01  0.39692416637E+01  0.15000000000E-01 0. -1.
</event>
<event>
 5   0  0.2306700E+09  0.9118800E+02  0.7818608E-02  0.1180000E+00
       11   -1    0    0    0    0  0.00000000000E+00  0.00000000000E+00  0.39999999673E+01  0.40000000000E+01  0.51109989000E-03 0.  1.
     -623   -1    0    0    0    0  0.00000000000E+00  0.00000000000E+00  0.12525980253E-10  0.17130000000E+03  0.17130000000E+03 0.  1.
       11    1    1    2    0    0  0.68122419201E-03 -0.12959936949E-03  0.50633626473E-02  0.51361198187E-02  0.51109989000E-03 0.  1.
     -623    1    1    2    0    0 -0.12805613746E-02  0.18795781465E-03  0.10093609458E-03  0.17130000000E+03  0.17130000000E+03 0.  1.
      622    1    1    2    0    0  0.59933718273E-03 -0.58358445176E-04  0.39948356690E+01  0.39948638756E+01  0.15000000000E-01 0.  1.
</event>
<event>
 5   0  0.2306700E+09  0.9118800E+02  0.7818608E-02  0.1180000E+00
       11   -1    0    0    0    0  0.00000000000E+00  0.00000000000E+00  0.39999999673E+01  0.40000000000E+01  0.51109989000E-03 0.  1.
     -623   -1    0    0    0    0  0.00000000000E+00  0.00000000000E+00  0.12525980253E-10  0.17130000000E+03  0.17130000000E+03 0.  1.
       11    1    1    2    0    0 -0.68160474585E-03  0.79492639604E-03  0.14305245292E+00  0.14305719836E+00  0.51109989000E-03 0.  1.
     -623    1    1    2    0    0 -0.70688656878E-04  0.62396973064E-03  0.34216603414E-04  0.17130000000E+03  0.17130000000E+03 0.  1.
      622    1    1    2    0    0  0.75229340273E-03 -0.14188961267E-02  0.38569132978E+01  0.38569428005E+01  0.15000000000E-01 0.  0.
</event>
<event>
 5   0  0.2306700E+09  0.9118800E+02  0.7818608E-02  0.1180000E+00
       11   -1    0    0    0    0  0.00000000000E+00  0.00000000000E+00  0.39999999673E+01  0.40000000000E+01  0.51109989000E-03 0.  1.
     -623   -1    0    0    0    0  0.00000000000E+00  0.00000000000E+00  0.12525980253E-10  0.17130000000E+03  0.17130000000E+03 0.  1.
       11    1    1    2    0    0 -0.11668824555E-02 -0.11467127221E-01  0.88667472815E+00  0.88674979075E+00  0.51109989000E-03 0.  1.
     -623    1    1    2    0    0 -0.29262624190E-03 -0.80853677251E-04  0.13292626021E-03  0.17130000000E+03  0.17130000000E+03 0.  1.
      622    1    1    2    0    0  0.14595086975E-02  0.11547980899E-01  0.31131923143E+01  0.31132502103E+01  0.15000000000E-01 0.  1.
</event>
<event>
 5   0  0.2306700E+09  0.9118800E+02  0.7818608E-02  0.1180000E+00
       11   -1    0    0    0    0  0.00000000000E+00  0.00000000000E+00  0.39999999673E+01  0.40000000000E+01  0.51109989000E-03 0. -1.
     -623   -1    0    0    0    0  0.00000000000E+00  0.00000000000E+00  0.12525980253E-10  0.17130000000E+03  0.17130000000E+03 0. -1.
       11    1    1    2    0    0  0.38193472477E-03 -0.54303260104E-03  0.94288340525E+00  0.94288377751E+00  0.51109989000E-03 0. -1.
     -623    1    1    2    0    0 -0.21880372540E-03 -0.75697832924E-04  0.37206345075E-04  0.17130000000E+03  0.17130000000E+03 0. -1.
      622    1    1    2    0    0 -0.16313099937E-03  0.61873043396E-03  0.30570793558E+01  0.30571162223E+01  0.15000000000E-01 0. -1.
</event>
<event>
 5   0  0.2306700E+09  0.9118800E+02  0.7818608E-02  0.1180000E+00
       11   -1    0    0    0    0  0.00000000000E+00  0.00000000000E+00  0.39999999673E+01  0.40000000000E+01  0.51109989000E-03 0. -1.
     -623   -1    0    0    0    0  0.00000000000E+00  0.00000000000E+00  0.12525980253E-10  0.17130000000E+03  0.17130000000E+03 0. -1.
       11    1    1    2    0    0 -0.18782017366E-01  0.97846811934E-02  0.13664413733E+00  0.13827648264E+00  0.51109989000E-03 0. -1.
     -623    1    1    2    0    0 -0.20269320377E-03 -0.77593651481E-03  0.17186297313E-02  0.17130000001E+03  0.17130000000E+03 0. -1.
      622    1    1    2    0    0  0.18984710570E-01 -0.90087446786E-02  0.38616372003E+01  0.38617235069E+01  0.15000000000E-01 0. -1.
</event>
<event>
 5   0  0.2306700E+09  0.9118800E+02  0.7818608E-02  0.1180000E+00
       11   -1    0    0    0    0  0.00000000000E+00  0.00000000000E+00  0.39999999673E+01  0.40000000000E+01  0.51109989000E-03 0. -1.
     -623   -1    0    0    0    0  0.00000000000E+00  0.00000000000E+00  0.12525980253E-10  0.17130000000E+03  0.17130000000E+03 0. -1.
       11    1    1    2    0    0  0.27910813918E-02 -0.55938955531E-02  0.22563560555E+00  0.22572277137E+00  0.51109989000E-03 0. -1.
     -623    1    1    2    0    0  0.33676888468E-02  0.80791739185E-02  0.12300716954E-03  0.17130000022E+03  0.17130000000E+03 0. -1.
      622    1    1    2    0    0 -0.61587702386E-02 -0.24852783655E-02  0.37742413546E+01  0.37742770050E+01  0.15000000000E-01 0. -1.
</event>
<event>
 5   0  0.2306700E+09  0.9118800E+02  0.7818608E-02  0.1180000E+00
       11   -1    0    0    0    0  0.00000000000E+00  0.00000000000E+00  0.39999999673E+01  0.40000000000E+01  0.51109989000E-03 0.  1.
     -623   -1    0    0    0    0  0.00000000000E+00  0.00000000000E+00  0.12525980253E-10  0.17130000000E+03  0.17130000000E+03 0. -1.
       11    1    1    2    0    0 -0.61238421186E-02  0.37256105034E-02  0.32900371670E+00  0.32908219101E+00  0.51109989000E-03 0.  1.
     -623    1    1    2    0    0 -0.23812640660E-03 -0.57585716916E-03  0.11595348944E-03  0.17130000000E+03  0.17130000000E+03 0. -1.
      622    1    1    2    0    0  0.63619685252E-02 -0.31497533342E-02  0.36708802972E+01  0.36709178078E+01  0.15000000000E-01 0.  1.
</event>
<event>
 5   0  0.2306700E+09  0.9118800E+02  0.7818608E-02  0.1180000E+00
       11   -1    0    0    0    0  0.00000000000E+00  0.00000000000E+00  0.39999999673E+01  0.40000000000E+01  0.51109989000E-03 0.  1.
     -623   -1    0    0    0    0  0.00000000000E+00  0.00000000000E+00  0.12525980253E-10  0.17130000000E+03  0.17130000000E+03 0. -1.
       11    1    1    2    0    0 -0.29350688767E-03  0.44871160641E-03  0.54485406466E-01  0.54490441632E-01  0.51109989000E-03 0.  1.
     -623    1    1    2    0    0  0.15740143314E-03 -0.30099520391E-04  0.33540689350E-04  0.17130000000E+03  0.17130000000E+03 0. -1.
      622    1    1    2    0    0  0.13610545454E-03 -0.41861208602E-03  0.39454810198E+01  0.39455095579E+01  0.15000000000E-01 0.  1.
</event>
<event>
 5   0  0.2306700E+09  0.9118800E+02  0.7818608E-02  0.1180000E+00
       11   -1    0    0    0    0  0.00000000000E+00  0.00000000000E+00  0.39999999673E+01  0.40000000000E+01  0.51109989000E-03 0.  1.
     -623   -1    0    0    0    0  0.00000000000E+00  0.00000000000E+00  0.12525980253E-10  0.17130000000E+03  0.17130000000E+03 0. -1.
       11    1    1    2    0    0  0.15085625647E-03 -0.18359656673E-03  0.11252183446E-02  0.12584924118E-02  0.51109989000E-03 0. -1.
     -623    1    1    2    0    0 -0.89323070488E-03  0.41843519505E-03  0.16145410178E-03  0.17130000000E+03  0.17130000000E+03 0. -1.
      622    1    1    2    0    0  0.74237444841E-03 -0.23483862832E-03  0.39987132949E+01  0.39987415047E+01  0.15000000000E-01 0.  1.
</event>
<event>
 5   0  0.2306700E+09  0.9118800E+02  0.7818608E-02  0.1180000E+00
       11   -1    0    0    0    0  0.00000000000E+00  0.00000000000E+00  0.39999999673E+01  0.40000000000E+01  0.51109989000E-03 0. -1.
     -623   -1    0    0    0    0  0.00000000000E+00  0.00000000000E+00  0.12525980253E-10  0.17130000000E+03  0.17130000000E+03 0. -1.
       11    1    1    2    0    0 -0.75982881661E-03 -0.37014640208E-03  0.13852593440E+00  0.13852945561E+00  0.51109989000E-03 0. -1.
     -623    1    1    2    0    0 -0.16848132657E-03  0.11523796686E-03  0.32742786130E-04  0.17130000000E+03  0.17130000000E+03 0. -1.
      622    1    1    2    0    0  0.92831014271E-03  0.25490843554E-03  0.38614412788E+01  0.38614705329E+01  0.15000000000E-01 0. -1.
</event>
<event>
 5   0  0.2306700E+09  0.9118800E+02  0.7818608E-02  0.1180000E+00
       11   -1    0    0    0    0  0.00000000000E+00  0.00000000000E+00  0.39999999673E+01  0.40000000000E+01  0.51109989000E-03 0.  1.
     -623   -1    0    0    0    0  0.00000000000E+00  0.00000000000E+00  0.12525980253E-10  0.17130000000E+03  0.17130000000E+03 0. -1.
       11    1    1    2    0    0  0.53603695134E-03 -0.68265322885E-03  0.42015099659E-01  0.42027171847E-01  0.51109989000E-03 0. -1.
     -623    1    1    2    0    0  0.11539010270E-02 -0.17141377961E-04  0.40889827880E-04  0.17130000000E+03  0.17130000000E+03 0. -1.
      622    1    1    2    0    0 -0.16899379793E-02  0.69979460682E-03  0.39579439812E+01  0.39579728276E+01  0.15000000000E-01 0.  1.
</event>
<event>
 5   0  0.2306700E+09  0.9118800E+02  0.7818608E-02  0.1180000E+00
       11   -1    0    0    0    0  0.00000000000E+00  0.00000000000E+00  0.39999999673E+01  0.40000000000E+01  0.51109989000E-03 0.  1.
     -623   -1    0    0    0    0  0.00000000000E+00  0.00000000000E+00  0.12525980253E-10  0.17130000000E+03  0.17130000000E+03 0. -1.
       11    1    1    2    0    0  0.41373709128E-02  0.78171310546E-03  0.96159205180E-02  0.10509807849E-01  0.51109989000E-03 0.  1.
     -623    1    1    2    0    0 -0.29719787238E-02  0.92943888923E-04  0.92234826887E-03  0.17130000003E+03  0.17130000000E+03 0. -1.
      622    1    1    2    0    0 -0.11653921889E-02 -0.87465699438E-03  0.39894616986E+01  0.39894901639E+01  0.15000000000E-01 0.  1.
</event>
<event>
 5   0  0.2306700E+09  0.9118800E+02  0.7818608E-02  0.1180000E+00
       11   -1    0    0    0    0  0.00000000000E+00  0.00000000000E+00  0.39999999673E+01  0.40000000000E+01  0.51109989000E-03 0.  1.
     -623   -1    0    0    0    0  0.00000000000E+00  0.00000000000E+00  0.12525980253E-10  0.17130000000E+03  0.17130000000E+03 0.  1.
       11    1    1    2    0    0 -0.10603456040E-02  0.14342777381E-02  0.55773932605E+00  0.55774241234E+00  0.51109989000E-03 0.  1.
     -623    1    1    2    0    0  0.35851213641E-02 -0.24194314211E-03  0.36905971654E-04  0.17130000004E+03  0.17130000000E+03 0.  1.
      622    1    1    2    0    0 -0.25247757601E-02 -0.11923345960E-02  0.34422237353E+01  0.34422575500E+01  0.15000000000E-01 0.  1.
</event>
<event>
 5   0  0.2306700E+09  0.9118800E+02  0.7818608E-02  0.1180000E+00
       11   -1    0    0    0    0  0.00000000000E+00  0.00000000000E+00  0.39999999673E+01  0.40000000000E+01  0.51109989000E-03 0. -1.
     -623   -1    0    0    0    0  0.00000000000E+00  0.00000000000E+00  0.12525980253E-10  0.17130000000E+03  0.17130000000E+03 0. -1.
       11    1    1    2    0    0 -0.17446874222E-02 -0.12193212898E-02  0.60580802531E+00  0.60581198026E+00  0.51109989000E-03 0. -1.
     -623    1    1    2    0    0  0.76677917222E-03  0.19721560677E-03  0.37363973755E-04  0.17130000000E+03  0.17130000000E+03 0. -1.
      622    1    1    2    0    0  0.97790824996E-03  0.10221056831E-02  0.33941545781E+01  0.33941880179E+01  0.15000000000E-01 0. -1.
</event>
<event>
 5   0  0.2306700E+09  0.9118800E+02  0.7818608E-02  0.1180000E+00
       11   -1    0    0    0    0  0.00000000000E+00  0.00000000000E+00  0.39999999673E+01  0.40000000000E+01  0.51109989000E-03 0. -1.
     -623   -1    0    0    0    0  0.00000000000E+00  0.00000000000E+00  0.12525980253E-10  0.17130000000E+03  0.17130000000E+03 0.  1.
       11    1    1    2    0    0 -0.32239946332E-02 -0.38495265251E-02  0.68199595793E+00  0.68201463390E+00  0.51109989000E-03 0. -1.
     -623    1    1    2    0    0  0.35192643515E-02  0.86688553514E-02  0.56318311745E-04  0.17130000026E+03  0.17130000000E+03 0.  1.
      622    1    1    2    0    0 -0.29526971218E-03 -0.48193288113E-02  0.33179476842E+01  0.33179851037E+01  0.15000000000E-01 0. -1.
</event>
<event>
 5   0  0.2306700E+09  0.9118800E+02  0.7818608E-02  0.1180000E+00
       11   -1    0    0    0    0  0.00000000000E+00  0.00000000000E+00  0.39999999673E+01  0.40000000000E+01  0.51109989000E-03 0. -1.
     -623   -1    0    0    0    0  0.00000000000E+00  0.00000000000E+00  0.12525980253E-10  0.17130000000E+03  0.17130000000E+03 0. -1.
       11    1    1    2    0    0  0.41253849770E-02  0.13512334738E-01  0.11817427323E+01  0.11818272922E+01  0.51109989000E-03 0. -1.
     -623    1    1    2    0    0  0.40720680930E-02 -0.15036876854E-01  0.13749032879E-03  0.17130000071E+03  0.17130000000E+03 0. -1.
      622    1    1    2    0    0 -0.81974530700E-02  0.15245421163E-02  0.28181197447E+01  0.28181719994E+01  0.15000000000E-01 0. -1.
</event>
<event>
 5   0  0.2306700E+09  0.9118800E+02  0.7818608E-02  0.1180000E+00
       11   -1    0    0    0    0  0.00000000000E+00  0.00000000000E+00  0.39999999673E+01  0.40000000000E+01  0.51109989000E-03 0. -1.
     -623   -1    0    0    0    0  0.00000000000E+00  0.00000000000E+00  0.12525980253E-10  0.17130000000E+03  0.17130000000E+03 0.  1.
       11    1    1    2    0    0 -0.16578124446E-03 -0.64668896198E-02  0.10262790969E+01  0.10262996122E+01  0.51109989000E-03 0. -1.
     -623    1    1    2    0    0  0.77531668380E-02  0.74305662476E-02  0.68487119970E-04  0.17130000034E+03  0.17130000000E+03 0.  1.
      622    1    1    2    0    0 -0.75873855903E-02 -0.96367662458E-03  0.29736523817E+01  0.29737000494E+01  0.15000000000E-01 0. -1.
</event>
<event>
 5   0  0.2306700E+09  0.9118800E+02  0.7818608E-02  0.1180000E+00
       11   -1    0    0    0    0  0.00000000000E+00  0.00000000000E+00  0.39999999673E+01  0.40000000000E+01  0.51109989000E-03 0.  1.
     -623   -1    0    0    0    0  0.00000000000E+00  0.00000000000E+00  0.12525980253E-10  0.17130000000E+03  0.17130000000E+03 0.  1.
       11    1    1    2    0    0  0.66394781349E-02 -0.10501985517E-02  0.46966671399E+00  0.46971509348E+00  0.51109989000E-03 0.  1.
     -623    1    1    2    0    0 -0.36383358148E-04  0.13798701647E-03  0.86507367580E-04  0.17130000000E+03  0.17130000000E+03 0.  1.
      622    1    1    2    0    0 -0.66030947767E-02  0.91221153517E-03  0.35302467488E+01  0.35302849093E+01  0.15000000000E-01 0.  1.
</event>
<event>
 5   0  0.2306700E+09  0.9118800E+02  0.7818608E-02  0.1180000E+00
       11   -1    0    0    0    0  0.00000000000E+00  0.00000000000E+00  0.39999999673E+01  0.40000000000E+01  0.51109989000E-03 0.  1.
     -623   -1    0    0    0    0  0.00000000000E+00  0.00000000000E+00  0.12525980253E-10  0.17130000000E+03  0.17130000000E+03 0.  1.
       11    1    1    2    0    0  0.29855708922E-03 -0.25268392448E-03  0.26497536759E+00  0.26497614918E+00  0.51109989000E-03 0.  1.
     -623    1    1    2    0    0  0.55512054429E-04  0.11452554922E-03  0.30888751848E-04  0.17130000000E+03  0.17130000000E+03 0.  1.
      622    1    1    2    0    0 -0.35406914365E-03  0.13815837526E-03  0.37349937110E+01  0.37350238508E+01  0.15000000000E-01 0.  1.
</event>
<event>
 5   0  0.2306700E+09  0.9118800E+02  0.7818608E-02  0.1180000E+00
       11   -1    0    0    0    0  0.00000000000E+00  0.00000000000E+00  0.39999999673E+01  0.40000000000E+01  0.51109989000E-03 0.  1.
     -623   -1    0    0    0    0  0.00000000000E+00  0.00000000000E+00  0.12525980253E-10  0.17130000000E+03  0.17130000000E+03 0.  1.
       11    1    1    2    0    0 -0.66497966036E-03 -0.46399686050E-03  0.87370757440E-01  0.87376014842E-01  0.51109989000E-03 0.  1.
     -623    1    1    2    0    0 -0.56894481337E-04  0.36427414866E-04  0.34067922571E-04  0.17130000000E+03  0.17130000000E+03 0.  1.
      622    1    1    2    0    0  0.72187414176E-03  0.42756944559E-03  0.39125951467E+01  0.39126239898E+01  0.15000000000E-01 0.  1.
</event>
<event>
 5   0  0.2306700E+09  0.9118800E+02  0.7818608E-02  0.1180000E+00
       11   -1    0    0    0    0  0.00000000000E+00  0.00000000000E+00  0.39999999673E+01  0.40000000000E+01  0.51109989000E-03 0.  1.
     -623   -1    0    0    0    0  0.00000000000E+00  0.00000000000E+00  0.12525980253E-10  0.17130000000E+03  0.17130000000E+03 0. -1.
       11    1    1    2    0    0  0.41887093305E-03 -0.28052855027E-03  0.59204581099E-01  0.59208933408E-01  0.51109989000E-03 0.  1.
     -623    1    1    2    0    0 -0.28867030145E-04  0.39797199308E-04  0.32894001843E-04  0.17130000000E+03  0.17130000000E+03 0. -1.
      622    1    1    2    0    0 -0.39000390286E-03  0.24073135089E-03  0.39407624987E+01  0.39407910730E+01  0.15000000000E-01 0.  1.
</event>
<event>
 5   0  0.2306700E+09  0.9118800E+02  0.7818608E-02  0.1180000E+00
       11   -1    0    0    0    0  0.00000000000E+00  0.00000000000E+00  0.39999999673E+01  0.40000000000E+01  0.51109989000E-03 0. -1.
     -623   -1    0    0    0    0  0.00000000000E+00  0.00000000000E+00  0.12525980253E-10  0.17130000000E+03  0.17130000000E+03 0.  1.
       11    1    1    2    0    0 -0.23891287553E-02 -0.11286166350E-02  0.23793217094E+00  0.23794739104E+00  0.51109989000E-03 0. -1.
     -623    1    1    2    0    0  0.11270436351E-02 -0.44084363574E-03  0.45634828597E-04  0.17130000000E+03  0.17130000000E+03 0.  1.
      622    1    1    2    0    0  0.12620851189E-02  0.15694602713E-02  0.37620221659E+01  0.37620526090E+01  0.15000000000E-01 0. -1.
</event>
<event>
 5   0  0.2306700E+09  0.9118800E+02  0.7818608E-02  0.1180000E+00
       11   -1    0    0    0    0  0.00000000000E+00  0.00000000000E+00  0.39999999673E+01  0.40000000000E+01  0.51109989000E-03 0.  1.
     -623   -1    0    0    0    0  0.00000000000E+00  0.00000000000E+00  0.12525980253E-10  0.17130000000E+03  0.17130000000E+03 0. -1.
       11    1    1    2    0    0 -0.93102009995E-02 -0.15866151911E-02  0.79221861563E+00  0.79227507431E+00  0.51109989000E-03 0.  1.
     -623    1    1    2    0    0 -0.45974063044E-03 -0.30632926813E-03  0.10693589521E-03  0.17130000000E+03  0.17130000000E+03 0. -1.
      622    1    1    2    0    0  0.97699416298E-02  0.18929444592E-02  0.32076744145E+01  0.32077249235E+01  0.15000000000E-01 0. -1.
</event>
<event>
 5   0  0.2306700E+09  0.9118800E+02  0.7818608E-02  0.1180000E+00
       11   -1    0    0    0    0  0.00000000000E+00  0.00000000000E+00  0.39999999673E+01  0.40000000000E+01  0.51109989000E-03 0. -1.
     -623   -1    0    0    0    0  0.00000000000E+00  0.00000000000E+00  0.12525980253E-10  0.17130000000E+03  0.17130000000E+03 0.  1.
       11    1    1    2    0    0 -0.57073171642E-03  0.29243674826E-02  0.16621637093E-01  0.16894309762E-01  0.51109989000E-03 0. -1.
     -623    1    1    2    0    0  0.19701159050E-02 -0.52718069761E-02  0.30191469770E-03  0.17130000009E+03  0.17130000000E+03 0.  1.
      622    1    1    2    0    0 -0.13993841886E-02  0.23474394935E-02  0.39830764156E+01  0.39831055975E+01  0.15000000000E-01 0. -1.
</event>
<event>
 5   0  0.2306700E+09  0.9118800E+02  0.7818608E-02  0.1180000E+00
       11   -1    0    0    0    0  0.00000000000E+00  0.00000000000E+00  0.39999999673E+01  0.40000000000E+01  0.51109989000E-03 0. -1.
     -623   -1    0    0    0    0  0.00000000000E+00  0.00000000000E+00  0.12525980253E-10  0.17130000000E+03  0.17130000000E+03 0.  1.
       11    1    1    2    0    0 -0.11226307671E-02  0.18500115582E-02  0.23106841048E-01  0.23213577254E-01  0.51109989000E-03 0. -1.
     -623    1    1    2    0    0  0.14746973019E-03 -0.91608551835E-05  0.13553858615E-03  0.17130000000E+03  0.17130000000E+03 0.  1.
      622    1    1    2    0    0  0.97516103694E-03 -0.18408507030E-02  0.39767575865E+01  0.39767864214E+01  0.15000000000E-01 0. -1.
</event>
<event>
 5   0  0.2306700E+09  0.9118800E+02  0.7818608E-02  0.1180000E+00
       11   -1    0    0    0    0  0.00000000000E+00  0.00000000000E+00  0.39999999673E+01  0.40000000000E+01  0.51109989000E-03 0. -1.
     -623   -1    0    0    0    0  0.00000000000E+00  0.00000000000E+00  0.12525980253E-10  0.17130000000E+03  0.17130000000E+03 0. -1.
       11    1    1    2    0    0  0.58331002192E-02  0.12357657040E-02  0.91117713757E+00  0.91119678962E+00  0.51109989000E-03 0. -1.
     -623    1    1    2    0    0  0.11409482034E-03  0.13201726325E-03  0.62069900495E-04  0.17130000000E+03  0.17130000000E+03 0. -1.
      622    1    1    2    0    0 -0.59471950396E-02 -0.13677829672E-02  0.30887607599E+01  0.30888032103E+01  0.15000000000E-01 0. -1.
</event>
<event>
 5   0  0.2306700E+09  0.9118800E+02  0.7818608E-02  0.1180000E+00
       11   -1    0    0    0    0  0.00000000000E+00  0.00000000000E+00  0.39999999673E+01  0.40000000000E+01  0.51109989000E-03 0. -1.
     -623   -1    0    0    0    0  0.00000000000E+00  0.00000000000E+00  0.12525980253E-10  0.17130000000E+03  0.17130000000E+03 0. -1.
       11    1    1    2    0    0 -0.19599741891E-03 -0.16299833208E-02  0.51998233240E-01  0.52026654146E-01  0.51109989000E-03 0. -1.
     -623    1    1    2    0    0  0.17797238673E-03  0.18764052125E-03  0.57147720313E-04  0.17130000000E+03  0.17130000000E+03 0. -1.
      622    1    1    2    0    0  0.18025032179E-04  0.14423427996E-02  0.39479445864E+01  0.39479733456E+01  0.15000000000E-01 0. -1.
</event>
<event>
 5   0  0.2306700E+09  0.9118800E+02  0.7818608E-02  0.1180000E+00
       11   -1    0    0    0    0  0.00000000000E+00  0.00000000000E+00  0.39999999673E+01  0.40000000000E+01  0.51109989000E-03 0. -1.
     -623   -1    0    0    0    0  0.00000000000E+00  0.00000000000E+00  0.12525980253E-10  0.17130000000E+03  0.17130000000E+03 0.  1.
       11    1    1    2    0    0 -0.30502423603E-02 -0.20313109478E-02  0.18702117226E+00  0.18705777262E+00  0.51109989000E-03 0. -1.
     -623    1    1    2    0    0 -0.56589600671E-03  0.96785173006E-03  0.67939355829E-04  0.17130000000E+03  0.17130000000E+03 0.  1.
      622    1    1    2    0    0  0.36161383670E-02  0.10634592177E-02  0.38129108557E+01  0.38129422237E+01  0.15000000000E-01 0. -1.
</event>
<event>
 5   0  0.2306700E+09  0.9118800E+02  0.7818608E-02  0.1180000E+00
       11   -1    0    0    0    0  0.00000000000E+00  0.00000000000E+00  0.39999999673E+01  0.40000000000E+01  0.51109989000E-03 0.  1.
     -623   -1    0    0    0    0  0.00000000000E+00  0.00000000000E+00  0.12525980253E-10  0.17130000000E+03  0.17130000000E+03 0.  1.
       11    1    1    2    0    0  0.55589943353E-03  0.79131064322E-03  0.23169359245E+00  0.23169617434E+00  0.51109989000E-03 0.  1.
     -623    1    1    2    0    0  0.40748177940E-03 -0.11176337118E-03  0.32588588151E-04  0.17130000000E+03  0.17130000000E+03 0.  1.
      622    1    1    2    0    0 -0.96338121293E-03 -0.67954727204E-03  0.37682737863E+01  0.37683038251E+01  0.15000000000E-01 0.  1.
</event>
<event>
 5   0  0.2306700E+09  0.9118800E+02  0.7818608E-02  0.1180000E+00
       11   -1    0    0    0    0  0.00000000000E+00  0.00000000000E+00  0.39999999673E+01  0.40000000000E+01  0.51109989000E-03 0. -1.
     -623   -1    0    0    0    0  0.00000000000E+00  0.00000000000E+00  0.12525980253E-10  0.17130000000E+03  0.17130000000E+03 0. -1.
       11    1    1    2    0    0 -0.16066156412E-02 -0.65324133016E-03  0.10637767683E-01  0.10790331896E-01  0.51109989000E-03 0. -1.
     -623    1    1    2    0    0  0.12601562085E-02  0.11326754381E-02  0.18078507769E-03  0.17130000001E+03  0.17130000000E+03 0. -1.
      622    1    1    2    0    0  0.34645943193E-03 -0.47943410861E-03  0.39891814168E+01  0.39892096619E+01  0.15000000000E-01 0. -1.
</event>
<event>
 5   0  0.2306700E+09  0.9118800E+02  0.7818608E-02  0.1180000E+00
       11   -1    0    0    0    0  0.00000000000E+00  0.00000000000E+00  0.39999999673E+01  0.40000000000E+01  0.51109989000E-03 0.  1.
     -623   -1    0    0    0    0  0.00000000000E+00  0.00000000000E+00  0.12525980253E-10  0.17130000000E+03  0.17130000000E+03 0.  1.
       11    1    1    2    0    0 -0.56206059117E-03  0.34271031161E-03  0.22551027538E+00  0.22551181541E+00  0.51109989000E-03 0.  1.
     -623    1    1    2    0    0  0.24371570577E-04 -0.17102860034E-05  0.31366575145E-04  0.17130000000E+03  0.17130000000E+03 0.  1.
      622    1    1    2    0    0  0.53768902061E-03 -0.34100002561E-03  0.37744583226E+01  0.37744881817E+01  0.15000000000E-01 0.  1.
</event>
<event>
 5   0  0.2306700E+09  0.9118800E+02  0.7818608E-02  0.1180000E+00
       11   -1    0    0    0    0  0.00000000000E+00  0.00000000000E+00  0.39999999673E+01  0.40000000000E+01  0.51109989000E-03 0. -1.
     -623   -1    0    0    0    0  0.00000000000E+00  0.00000000000E+00  0.12525980253E-10  0.17130000000E+03  0.17130000000E+03 0.  1.
       11    1    1    2    0    0 -0.10106187391E-01 -0.19713183926E-01  0.38142801437E+00  0.38207111381E+00  0.51109989000E-03 0. -1.
     -623    1    1    2    0    0  0.13743032746E-02 -0.12920244077E-02  0.74568933263E-03  0.17130000001E+03  0.17130000000E+03 0.  1.
      622    1    1    2    0    0  0.87318841168E-02  0.21005208334E-01  0.36178262638E+01  0.36179288743E+01  0.15000000000E-01 0. -1.
</event>
<event>
 5   0  0.2306700E+09  0.9118800E+02  0.7818608E-02  0.1180000E+00
       11   -1    0    0    0    0  0.00000000000E+00  0.00000000000E+00  0.39999999673E+01  0.40000000000E+01  0.51109989000E-03 0. -1.
     -623   -1    0    0    0    0  0.00000000000E+00  0.00000000000E+00  0.12525980253E-10  0.17130000000E+03  0.17130000000E+03 0. -1.
       11    1    1    2    0    0  0.27865390982E-02 -0.28189515446E-02  0.89848244707E-01  0.89937086821E-01  0.51109989000E-03 0. -1.
     -623    1    1    2    0    0  0.13596478226E-02 -0.81137517781E-03  0.12147247391E-03  0.17130000001E+03  0.17130000000E+03 0. -1.
      622    1    1    2    0    0 -0.41461869208E-02  0.36303267224E-02  0.39100302502E+01  0.39100629058E+01  0.15000000000E-01 0. -1.
</event>
<event>
 5   0  0.2306700E+09  0.9118800E+02  0.7818608E-02  0.1180000E+00
       11   -1    0    0    0    0  0.00000000000E+00  0.00000000000E+00  0.39999999673E+01  0.40000000000E+01  0.51109989000E-03 0.  1.
     -623   -1    0    0    0    0  0.00000000000E+00  0.00000000000E+00  0.12525980253E-10  0.17130000000E+03  0.17130000000E+03 0.  1.
       11    1    1    2    0    0 -0.78660063160E-03  0.64228164199E-02  0.25200284561E+00  0.25208642710E+00  0.51109989000E-03 0.  1.
     -623    1    1    2    0    0 -0.27620734325E-02 -0.51601674019E-02  0.11555842174E-03  0.17130000010E+03  0.17130000000E+03 0.  1.
      622    1    1    2    0    0  0.35486740670E-02 -0.12626490128E-02  0.37478815674E+01  0.37479134769E+01  0.15000000000E-01 0.  1.
</event>
<event>
 5   0  0.2306700E+09  0.9118800E+02  0.7818608E-02  0.1180000E+00
       11   -1    0    0    0    0  0.00000000000E+00  0.00000000000E+00  0.39999999673E+01  0.40000000000E+01  0.51109989000E-03 0. -1.
     -623   -1    0    0    0    0  0.00000000000E+00  0.00000000000E+00  0.12525980253E-10  0.17130000000E+03  0.17130000000E+03 0.  1.
       11    1    1    2    0    0 -0.34334007280E-02 -0.13265854658E-03  0.51354712133E+00  0.51355886994E+00  0.51109989000E-03 0. -1.
     -623    1    1    2    0    0 -0.60850445858E-03  0.17593923961E-02  0.46716564852E-04  0.17130000001E+03  0.17130000000E+03 0.  1.
      622    1    1    2    0    0  0.40419051873E-02 -0.16267338517E-02  0.34864061344E+01  0.34864411249E+01  0.15000000000E-01 0. -1.
</event>
<event>
 5   0  0.2306700E+09  0.9118800E+02  0.7818608E-02  0.1180000E+00
       11   -1    0    0    0    0  0.00000000000E+00  0.00000000000E+00  0.39999999673E+01  0.40000000000E+01  0.51109989000E-03 0.  1.
     -623   -1    0    0    0    0  0.00000000000E+00  0.00000000000E+00  0.12525980253E-10  0.17130000000E+03  0.17130000000E+03 0. -1.
       11    1    1    2    0    0 -0.12479729175E-02  0.49324230257E-03  0.18683788700E-01  0.18738887578E-01  0.51109989000E-03 0.  1.
     -623    1    1    2    0    0  0.15507079882E-03  0.30681514817E-03  0.83554478105E-04  0.17130000000E+03  0.17130000000E+03 0. -1.
      622    1    1    2    0    0  0.10929021186E-02 -0.80005745092E-03  0.39812326265E+01  0.39812611143E+01  0.15000000000E-01 0.  1.
</event>
<event>
 5   0  0.2306700E+09  0.9118800E+02  0.7818608E-02  0.1180000E+00
       11   -1    0    0    0    0  0.00000000000E+00  0.00000000000E+00  0.39999999673E+01  0.40000000000E+01  0.51109989000E-03 0. -1.
     -623   -1    0    0    0    0  0.00000000000E+00  0.00000000000E+00  0.12525980253E-10  0.17130000000E+03  0.17130000000E+03 0.  1.
       11    1    1    2    0    0  0.99784479680E-03 -0.54957133555E-03  0.31090675662E-01  0.31115736497E-01  0.51109989000E-03 0. -1.
     -623    1    1    2    0    0 -0.31394503971E-03  0.10187806884E-02  0.53463778618E-04  0.17130000000E+03  0.17130000000E+03 0.  1.
      622    1    1    2    0    0 -0.68389975709E-03 -0.46920935290E-03  0.39688558279E+01  0.39688842602E+01  0.15000000000E-01 0. -1.
</event>
<event>
 5   0  0.2306700E+09  0.9118800E+02  0.7818608E-02  0.1180000E+00
       11   -1    0    0    0    0  0.00000000000E+00  0.00000000000E+00  0.39999999673E+01  0.40000000000E+01  0.51109989000E-03 0.  1.
     -623   -1    0    0    0    0  0.00000000000E+00  0.00000000000E+00  0.12525980253E-10  0.17130000000E+03  0.17130000000E+03 0. -1.
       11    1    1    2    0    0 -0.35616232141E-03 -0.10631114861E-02  0.13359936946E+00  0.13360505154E+00  0.51109989000E-03 0.  1.
     -623    1    1    2    0    0 -0.25783602569E-03 -0.14683927816E-04  0.34945598918E-04  0.17130000000E+03  0.17130000000E+03 0. -1.
      622    1    1    2    0    0  0.61399834711E-03  0.10777954139E-02  0.38663656523E+01  0.38663949483E+01  0.15000000000E-01 0.  1.
</event>
<event>
 5   0  0.2306700E+09  0.9118800E+02  0.7818608E-02  0.1180000E+00
       11   -1    0    0    0    0  0.00000000000E+00  0.00000000000E+00  0.39999999673E+01  0.40000000000E+01  0.51109989000E-03 0.  1.
     -623   -1    0    0    0    0  0.00000000000E+00  0.00000000000E+00  0.12525980253E-10  0.17130000000E+03  0.17130000000E+03 0. -1.
       11    1    1    2    0    0 -0.80585791825E-04 -0.47992824019E-03  0.14270556761E+00  0.14270731262E+00  0.51109989000E-03 0.  1.
     -623    1    1    2    0    0 -0.10797647839E-03 -0.10959212833E-03  0.30927743704E-04  0.17130000000E+03  0.17130000000E+03 0. -1.
      622    1    1    2    0    0  0.18856227050E-03  0.58952036880E-03  0.38572634825E+01  0.38572926978E+01  0.15000000000E-01 0.  1.
</event>
<event>
 5   0  0.2306700E+09  0.9118800E+02  0.7818608E-02  0.1180000E+00
       11   -1    0    0    0    0  0.00000000000E+00  0.00000000000E+00  0.39999999673E+01  0.40000000000E+01  0.51109989000E-03 0. -1.
     -623   -1    0    0    0    0  0.00000000000E+00  0.00000000000E+00  0.12525980253E-10  0.17130000000E+03  0.17130000000E+03 0. -1.
       11    1    1    2    0    0  0.17656302109E-02  0.80481884117E-03  0.82234099606E-01  0.82258577322E-01  0.51109989000E-03 0. -1.
     -623    1    1    2    0    0 -0.18959161681E-02  0.18647848435E-02  0.54093081371E-04  0.17130000002E+03  0.17130000000E+03 0. -1.
      622    1    1    2    0    0  0.13028595718E-03 -0.26696036847E-02  0.39177117747E+01  0.39177414020E+01  0.15000000000E-01 0. -1.
</event>
<event>
 5   0  0.2306700E+09  0.9118800E+02  0.7818608E-02  0.1180000E+00
       11   -1    0    0    0    0  0.00000000000E+00  0.00000000000E+00  0.39999999673E+01  0.40000000000E+01  0.51109989000E-03 0. -1.
     -623   -1    0    0    0    0  0.00000000000E+00  0.00000000000E+00  0.12525980253E-10  0.17130000000E+03  0.17130000000E+03 0.  1.
       11    1    1    2    0    0 -0.14482425716E-02  0.40156934770E-02  0.79100473970E-01  0.79217229219E-01  0.51109989000E-03 0. -1.
     -623    1    1    2    0    0 -0.63422190209E-03 -0.48159597217E-02  0.14611960879E-03  0.17130000007E+03  0.17130000000E+03 0.  1.
      622    1    1    2    0    0  0.20824644737E-02  0.80026624469E-03  0.39207533738E+01  0.39207827018E+01  0.15000000000E-01 0. -1.
</event>
<event>
 5   0  0.2306700E+09  0.9118800E+02  0.7818608E-02  0.1180000E+00
       11   -1    0    0    0    0  0.00000000000E+00  0.00000000000E+00  0.39999999673E+01  0.40000000000E+01  0.51109989000E-03 0. -1.
     -623   -1    0    0    0    0  0.00000000000E+00  0.00000000000E+00  0.12525980253E-10  0.17130000000E+03  0.17130000000E+03 0.  1.
       11    1    1    2    0    0 -0.19680584700E-03  0.80416129647E-03  0.44614465441E-02  0.45663044462E-02  0.51109989000E-03 0.  1.
     -623    1    1    2    0    0 -0.65520744806E-03  0.30639671390E-03  0.13322927351E-03  0.17130000000E+03  0.17130000000E+03 0.  1.
      622    1    1    2    0    0  0.85201329498E-03 -0.11105580103E-02  0.39954052911E+01  0.39954336935E+01  0.15000000000E-01 0. -1.
</event>
<event>
 5   0  0.2306700E+09  0.9118800E+02  0.7818608E-02  0.1180000E+00
       11   -1    0    0    0    0  0.00000000000E+00  0.00000000000E+00  0.39999999673E+01  0.40000000000E+01  0.51109989000E-03 0.  1.
     -623   -1    0    0    0    0  0.00000000000E+00  0.00000000000E+00  0.12525980253E-10  0.17130000000E+03  0.17130000000E+03 0.  1.
       11    1    1    2    0    0  0.18169626112E-02  0.76047442598E-03  0.49177646968E-02  0.53221524963E-02  0.51109989000E-03 0.  1.
     -623    1    1    2    0    0 -0.11398969446E-03  0.13662651682E-02  0.43345289999E-03  0.17130000001E+03  0.17130000000E+03 0.  1.
      622    1    1    2    0    0 -0.17029729168E-02 -0.21267395942E-02  0.39946487498E+01  0.39946778415E+01  0.15000000000E-01 0.  1.
</event>
<event>
 5   0  0.2306700E+09  0.9118800E+02  0.7818608E-02  0.1180000E+00
       11   -1    0    0    0    0  0.00000000000E+00  0.00000000000E+00  0.39999999673E+01  0.40000000000E+01  0.51109989000E-03 0. -1.
     -623   -1    0    0    0    0  0.00000000000E+00  0.00000000000E+00  0.12525980253E-10  0.17130000000E+03  0.17130000000E+03 0. -1.
       11    1    1    2    0    0  0.40129528583E-02 -0.31187178854E-03  0.22484959126E-01  0.22848099804E-01  0.51109989000E-03 0. -1.
     -623    1    1    2    0    0  0.90947765004E-04 -0.74456300469E-03  0.39365447584E-03  0.17130000000E+03  0.17130000000E+03 0. -1.
      622    1    1    2    0    0 -0.41039006233E-02  0.10564347935E-02  0.39771213550E+01  0.39771518993E+01  0.15000000000E-01 0. -1.
</event>
<event>
 5   0  0.2306700E+09  0.9118800E+02  0.7818608E-02  0.1180000E+00
       11   -1    0    0    0    0  0.00000000000E+00  0.00000000000E+00  0.39999999673E+01  0.40000000000E+01  0.51109989000E-03 0.  1.
     -623   -1    0    0    0    0  0.00000000000E+00  0.00000000000E+00  0.12525980253E-10  0.17130000000E+03  0.17130000000E+03 0.  1.
       11    1    1    2    0    0  0.14536771825E-02  0.17531575953E-02  0.20396373982E+00  0.20397709460E+00  0.51109989000E-03 0.  1.
     -623    1    1    2    0    0  0.15336908404E-03  0.18331264473E-04  0.43712142192E-04  0.17130000000E+03  0.17130000000E+03 0.  1.
      622    1    1    2    0    0 -0.16070462665E-02 -0.17714888598E-02  0.37959925154E+01  0.37960229053E+01  0.15000000000E-01 0.  1.
</event>
<event>
 5   0  0.2306700E+09  0.9118800E+02  0.7818608E-02  0.1180000E+00
       11   -1    0    0    0    0  0.00000000000E+00  0.00000000000E+00  0.39999999673E+01  0.40000000000E+01  0.51109989000E-03 0. -1.
     -623   -1    0    0    0    0  0.00000000000E+00  0.00000000000E+00  0.12525980253E-10  0.17130000000E+03  0.17130000000E+03 0.  1.
       11    1    1    2    0    0 -0.13506126224E-02  0.72200656114E-03  0.62228704108E-01  0.62249644866E-01  0.51109989000E-03 0. -1.
     -623    1    1    2    0    0  0.66650487080E-03  0.40016416693E-03  0.49698928710E-04  0.17130000000E+03  0.17130000000E+03 0.  1.
      622    1    1    2    0    0  0.68410775080E-03 -0.11221707286E-02  0.39377215694E+01  0.39377503584E+01  0.15000000000E-01 0. -1.
</event>
<event>
 5   0  0.2306700E+09  0.9118800E+02  0.7818608E-02  0.1180000E+00
       11   -1    0    0    0    0  0.00000000000E+00  0.00000000000E+00  0.39999999673E+01  0.40000000000E+01  0.51109989000E-03 0.  1.
     -623   -1    0    0    0    0  0.00000000000E+00  0.00000000000E+00  0.12525980253E-10  0.17130000000E+03  0.17130000000E+03 0. -1.
       11    1    1    2    0    0 -0.33930311150E-02 -0.59948336758E-02  0.81186615449E+00  0.81189553806E+00  0.51109989000E-03 0.  1.
     -623    1    1    2    0    0 -0.53636263503E-02  0.27561340772E-03  0.81878731818E-04  0.17130000008E+03  0.17130000000E+03 0. -1.
      622    1    1    2    0    0  0.87566574693E-02  0.57192202679E-02  0.31880519371E+01  0.31881043807E+01  0.15000000000E-01 0.  1.
</event>
<event>
 5   0  0.2306700E+09  0.9118800E+02  0.7818608E-02  0.1180000E+00
       11   -1    0    0    0    0  0.00000000000E+00  0.00000000000E+00  0.39999999673E+01  0.40000000000E+01  0.51109989000E-03 0.  1.
     -623   -1    0    0    0    0  0.00000000000E+00  0.00000000000E+00  0.12525980253E-10  0.17130000000E+03  0.17130000000E+03 0.  1.
       11    1    1    2    0    0 -0.14582095465E-02 -0.88771826077E-03  0.34391944209E+00  0.34392405889E+00  0.51109989000E-03 0.  1.
     -623    1    1    2    0    0  0.37088004266E-04  0.72823108465E-04  0.35722029703E-04  0.17130000000E+03  0.17130000000E+03 0.  1.
      622    1    1    2    0    0  0.14211215423E-02  0.81489515230E-03  0.36560448032E+01  0.36560759411E+01  0.15000000000E-01 0.  1.
</event>
<event>
 5   0  0.2306700E+09  0.9118800E+02  0.7818608E-02  0.1180000E+00
       11   -1    0    0    0    0  0.00000000000E+00  0.00000000000E+00  0.39999999673E+01  0.40000000000E+01  0.51109989000E-03 0. -1.
     -623   -1    0    0    0    0  0.00000000000E+00  0.00000000000E+00  0.12525980253E-10  0.17130000000E+03  0.17130000000E+03 0.  1.
       11    1    1    2    0    0 -0.44552318001E-03 -0.21623832962E-02  0.11050810646E-01  0.11280781509E-01  0.51109989000E-03 0. -1.
     -623    1    1    2    0    0  0.36438951369E-02  0.18892526030E-03  0.25995244418E-03  0.17130000004E+03  0.17130000000E+03 0.  1.
      622    1    1    2    0    0 -0.31983719576E-02  0.19734580358E-02  0.39886892051E+01  0.39887191802E+01  0.15000000000E-01 0. -1.
</event>
<event>
 5   0  0.2306700E+09  0.9118800E+02  0.7818608E-02  0.1180000E+00
       11   -1    0    0    0    0  0.00000000000E+00  0.00000000000E+00  0.39999999673E+01  0.40000000000E+01  0.51109989000E-03 0.  1.
     -623   -1    0    0    0    0  0.00000000000E+00  0.00000000000E+00  0.12525980253E-10  0.17130000000E+03  0.17130000000E+03 0.  1.
       11    1    1    2    0    0  0.11444926174E-02 -0.97281553887E-03  0.24456327937E-01  0.24507742259E-01  0.51109989000E-03 0. -1.
     -623    1    1    2    0    0 -0.25401210269E-03  0.45286715517E-04  0.79888311870E-04  0.17130000000E+03  0.17130000000E+03 0.  1.
      622    1    1    2    0    0 -0.89048051466E-03  0.92752882335E-03  0.39754637511E+01  0.39754922575E+01  0.15000000000E-01 0.  1.
</event>
<event>
 5   0  0.2306700E+09  0.9118800E+02  0.7818608E-02  0.1180000E+00
       11   -1    0    0    0    0  0.00000000000E+00  0.00000000000E+00  0.39999999673E+01  0.40000000000E+01  0.51109989000E-03 0. -1.
     -623   -1    0    0    0    0  0.00000000000E+00  0.00000000000E+00  0.12525980253E-10  0.17130000000E+03  0.17130000000E+03 0. -1.
       11    1    1    2    0    0 -0.24716058875E-03 -0.35556303771E-03  0.88716210513E-01  0.88718739533E-01  0.51109989000E-03 0. -1.
     -623    1    1    2    0    0 -0.21894416122E-02 -0.33383641747E-02  0.33809271534E-04  0.17130000005E+03  0.17130000000E+03 0. -1.
      622    1    1    2    0    0  0.24366022051E-02  0.36939272187E-02  0.39112499552E+01  0.39112812216E+01  0.15000000000E-01 0. -1.
</event>
<event>
 5   0  0.2306700E+09  0.9118800E+02  0.7818608E-02  0.1180000E+00
       11   -1    0    0    0    0  0.00000000000E+00  0.00000000000E+00  0.39999999673E+01  0.40000000000E+01  0.51109989000E-03 0.  1.
     -623   -1    0    0    0    0  0.00000000000E+00  0.00000000000E+00  0.12525980253E-10  0.17130000000E+03  0.17130000000E+03 0. -1.
       11    1    1    2    0    0  0.72837611957E-02 -0.26160806772E-02  0.42165888096E+00  0.42173021017E+00  0.51109989000E-03 0.  1.
     -623    1    1    2    0    0  0.13113499131E-03  0.55025793481E-03  0.11101644116E-03  0.17130000000E+03  0.17130000000E+03 0. -1.
      622    1    1    2    0    0 -0.74148961870E-02  0.20658227424E-02  0.35782300700E+01  0.35782697889E+01  0.15000000000E-01 0.  1.
</event>
<event>
 5   0  0.2306700E+09  0.9118800E+02  0.7818608E-02  0.1180000E+00
       11   -1    0    0    0    0  0.00000000000E+00  0.00000000000E+00  0.39999999673E+01  0.40000000000E+01  0.51109989000E-03 0. -1.
     -623   -1    0    0    0    0  0.00000000000E+00  0.00000000000E+00  0.12525980253E-10  0.17130000000E+03  0.17130000000E+03 0.  1.
       11    1    1    2    0    0  0.19552309184E-02 -0.19747617761E-02  0.65680158225E-01  0.65740908265E-01  0.51109989000E-03 0.  1.
     -623    1    1    2    0    0 -0.41674689295E-03  0.57403570932E-03  0.89864128339E-04  0.17130000000E+03  0.17130000000E+03 0.  1.
      622    1    1    2    0    0 -0.15384840255E-02  0.14007260669E-02  0.39342299439E+01  0.39342590891E+01  0.15000000000E-01 0. -1.
</event>
<event>
 5   0  0.2306700E+09  0.9118800E+02  0.7818608E-02  0.1180000E+00
       11   -1    0    0    0    0  0.00000000000E+00  0.00000000000E+00  0.39999999673E+01  0.40000000000E+01  0.51109989000E-03 0.  1.
     -623   -1    0    0    0    0  0.00000000000E+00  0.00000000000E+00  0.12525980253E-10  0.17130000000E+03  0.17130000000E+03 0. -1.
       11    1    1    2    0    0  0.42103173616E-04  0.57514653469E-04  0.29666582690E+00  0.29666627573E+00  0.51109989000E-03 0.  1.
     -623    1    1    2    0    0 -0.24621103149E-03 -0.11455784011E-03  0.30800626516E-04  0.17130000000E+03  0.17130000000E+03 0. -1.
      622    1    1    2    0    0  0.20410785787E-03  0.57043186639E-04  0.37033033398E+01  0.37033337241E+01  0.15000000000E-01 0.  1.
</event>
<event>
 5   0  0.2306700E+09  0.9118800E+02  0.7818608E-02  0.1180000E+00
       11   -1    0    0    0    0  0.00000000000E+00  0.00000000000E+00  0.39999999673E+01  0.40000000000E+01  0.51109989000E-03 0.  1.
     -623   -1    0    0    0    0  0.00000000000E+00  0.00000000000E+00  0.12525980253E-10  0.17130000000E+03  0.17130000000E+03 0.  1.
       11    1    1    2    0    0 -0.19134925953E-03 -0.32822754373E-03  0.71475010592E-02  0.71758164935E-02  0.51109989000E-03 0.  1.
     -623    1    1    2    0    0 -0.66682806183E-05  0.14528552316E-03  0.56467611547E-04  0.17130000000E+03  0.17130000000E+03 0.  1.
      622    1    1    2    0    0  0.19801754015E-03  0.18294202064E-03  0.39927959969E+01  0.39928241817E+01  0.15000000000E-01 0.  1.
</event>
<event>
 5   0  0.2306700E+09  0.9118800E+02  0.7818608E-02  0.1180000E+00
       11   -1    0    0    0    0  0.00000000000E+00  0.00000000000E+00  0.39999999673E+01  0.40000000000E+01  0.51109989000E-03 0. -1.
     -623   -1    0    0    0    0  0.00000000000E+00  0.00000000000E+00  0.12525980253E-10  0.17130000000E+03  0.17130000000E+03 0. -1.
       11    1    1    2    0    0  0.16981493938E-02  0.11510713740E-02  0.49612669682E-01  0.49657697200E-01  0.51109989000E-03 0. -1.
     -623    1    1    2    0    0 -0.13854317558E-02 -0.25535011555E-02  0.73759497001E-04  0.17130000002E+03  0.17130000000E+03 0. -1.
      622    1    1    2    0    0 -0.31271763806E-03  0.14024297815E-02  0.39503135382E+01  0.39503422781E+01  0.15000000000E-01 0. -1.
</event>
<event>
 5   0  0.2306700E+09  0.9118800E+02  0.7818608E-02  0.1180000E+00
       11   -1    0    0    0    0  0.00000000000E+00  0.00000000000E+00  0.39999999673E+01  0.40000000000E+01  0.51109989000E-03 0. -1.
     -623   -1    0    0    0    0  0.00000000000E+00  0.00000000000E+00  0.12525980253E-10  0.17130000000E+03  0.17130000000E+03 0.  1.
       11    1    1    2    0    0 -0.34197955808E-02 -0.76766917601E-03  0.60573322783E+00  0.60574358340E+00  0.51109989000E-03 0. -1.
     -623    1    1    2    0    0  0.77959443845E-05 -0.42309796471E-04  0.45278914348E-04  0.17130000000E+03  0.17130000000E+03 0.  1.
      622    1    1    2    0    0  0.34119996365E-02  0.80997897248E-03  0.33942214606E+01  0.33942564166E+01  0.15000000000E-01 0. -1.
</event>
<event>
 5   0  0.2306700E+09  0.9118800E+02  0.7818608E-02  0.1180000E+00
       11   -1    0    0    0    0  0.00000000000E+00  0.00000000000E+00  0.39999999673E+01  0.40000000000E+01  0.51109989000E-03 0.  1.
     -623   -1    0    0    0    0  0.00000000000E+00  0.00000000000E+00  0.12525980253E-10  0.17130000000E+03  0.17130000000E+03 0. -1.
       11    1    1    2    0    0  0.11452544677E-03  0.38717655645E-03  0.55311125133E-01  0.55314960077E-01  0.51109989000E-03 0.  1.
     -623    1    1    2    0    0  0.10063373520E-03  0.71646743364E-04  0.32354393819E-04  0.17130000000E+03  0.17130000000E+03 0. -1.
      622    1    1    2    0    0 -0.21515918205E-03 -0.45882329986E-03  0.39446564908E+01  0.39446850429E+01  0.15000000000E-01 0.  1.
</event>
<event>
 5   0  0.2306700E+09  0.9118800E+02  0.7818608E-02  0.1180000E+00
       11   -1    0    0    0    0  0.00000000000E+00  0.00000000000E+00  0.39999999673E+01  0.40000000000E+01  0.51109989000E-03 0.  1.
     -623   -1    0    0    0    0  0.00000000000E+00  0.00000000000E+00  0.12525980253E-10  0.17130000000E+03  0.17130000000E+03 0.  1.
       11    1    1    2    0    0  0.84427756490E-04 -0.15741025799E-04  0.87900833551E-01  0.87902361373E-01  0.51109989000E-03 0.  1.
     -623    1    1    2    0    0  0.16403394115E-03 -0.12847724606E-03  0.30262916237E-04  0.17130000000E+03  0.17130000000E+03 0.  1.
      622    1    1    2    0    0 -0.24846169764E-03  0.14421827186E-03  0.39120688709E+01  0.39120976385E+01  0.15000000000E-01 0.  1.
</event>
<event>
 5   0  0.2306700E+09  0.9118800E+02  0.7818608E-02  0.1180000E+00
       11   -1    0    0    0    0  0.00000000000E+00  0.00000000000E+00  0.39999999673E+01  0.40000000000E+01  0.51109989000E-03 0.  1.
     -623   -1    0    0    0    0  0.00000000000E+00  0.00000000000E+00  0.12525980253E-10  0.17130000000E+03  0.17130000000E+03 0. -1.
       11    1    1    2    0    0  0.48373466829E-02 -0.55679709467E-02  0.28633065630E+00  0.28642609550E+00  0.51109989000E-03 0.  1.
     -623    1    1    2    0    0  0.39548091743E-03  0.19931011963E-03  0.13326914832E-03  0.17130000000E+03  0.17130000000E+03 0. -1.
      622    1    1    2    0    0 -0.52328276004E-02  0.53686608270E-02  0.37135360419E+01  0.37135739039E+01  0.15000000000E-01 0.  0.
</event>
<event>
 5   0  0.2306700E+09  0.9118800E+02  0.7818608E-02  0.1180000E+00
       11   -1    0    0    0    0  0.00000000000E+00  0.00000000000E+00  0.39999999673E+01  0.40000000000E+01  0.51109989000E-03 0. -1.
     -623   -1    0    0    0    0  0.00000000000E+00  0.00000000000E+00  0.12525980253E-10  0.17130000000E+03  0.17130000000E+03 0.  1.
       11    1    1    2    0    0  0.11749482507E-03 -0.13580248854E-02  0.86541989056E-01  0.86554232303E-01  0.51109989000E-03 0. -1.
     -623    1    1    2    0    0  0.28343123178E-03  0.22579458193E-03  0.41142470572E-04  0.17130000000E+03  0.17130000000E+03 0.  1.
      622    1    1    2    0    0 -0.40092605716E-03  0.11322303033E-02  0.39134168403E+01  0.39134457717E+01  0.15000000000E-01 0. -1.
</event>
<event>
 5   0  0.2306700E+09  0.9118800E+02  0.7818608E-02  0.1180000E+00
       11   -1    0    0    0    0  0.00000000000E+00  0.00000000000E+00  0.39999999673E+01  0.40000000000E+01  0.51109989000E-03 0. -1.
     -623   -1    0    0    0    0  0.00000000000E+00  0.00000000000E+00  0.12525980253E-10  0.17130000000E+03  0.17130000000E+03 0. -1.
       11    1    1    2    0    0  0.69551713032E-03  0.33412509563E-03  0.10583585990E-01  0.10623977543E-01  0.51109989000E-03 0. -1.
     -623    1    1    2    0    0  0.38039155061E-03 -0.89790949606E-03  0.68746622460E-04  0.17130000000E+03  0.17130000000E+03 0. -1.
      622    1    1    2    0    0 -0.10759086809E-02  0.56378440043E-03  0.39893476347E+01  0.39893760197E+01  0.15000000000E-01 0. -1.
</event>
<event>
 5   0  0.2306700E+09  0.9118800E+02  0.7818608E-02  0.1180000E+00
       11   -1    0    0    0    0  0.00000000000E+00  0.00000000000E+00  0.39999999673E+01  0.40000000000E+01  0.51109989000E-03 0.  1.
     -623   -1    0    0    0    0  0.00000000000E+00  0.00000000000E+00  0.12525980253E-10  0.17130000000E+03  0.17130000000E+03 0. -1.
       11    1    1    2    0    0  0.35978640604E-02  0.13788986272E-02  0.15279790042E+00  0.15284732769E+00  0.51109989000E-03 0.  1.
     -623    1    1    2    0    0 -0.21144203311E-02  0.14435478570E-02  0.79977653443E-04  0.17130000002E+03  0.17130000000E+03 0. -1.
      622    1    1    2    0    0 -0.14834437252E-02 -0.28224464870E-02  0.38471220971E+01  0.38471526609E+01  0.15000000000E-01 0.  1.
</event>
<event>
 5   0  0.2306700E+09  0.9118800E+02  0.7818608E-02  0.1180000E+00
       11   -1    0    0    0    0  0.00000000000E+00  0.00000000000E+00  0.39999999673E+01  0.40000000000E+01  0.51109989000E-03 0. -1.
     -623   -1    0    0    0    0  0.00000000000E+00  0.00000000000E+00  0.12525980253E-10  0.17130000000E+03  0.17130000000E+03 0.  1.
       11    1    1    2    0    0  0.28918407506E-02  0.13088647773E-02  0.39082010797E-02  0.50607438178E-02  0.51109989000E-03 0. -1.
     -623    1    1    2    0    0 -0.18980545056E-02  0.90353136493E-03  0.11814240236E-02  0.17130000002E+03  0.17130000000E+03 0.  1.
      622    1    1    2    0    0 -0.99378624498E-03 -0.22123961423E-02  0.39949103423E+01  0.39949392392E+01  0.15000000000E-01 0. -1.
</event>
<event>
 5   0  0.2306700E+09  0.9118800E+02  0.7818608E-02  0.1180000E+00
       11   -1    0    0    0    0  0.00000000000E+00  0.00000000000E+00  0.39999999673E+01  0.40000000000E+01  0.51109989000E-03 0. -1.
     -623   -1    0    0    0    0  0.00000000000E+00  0.00000000000E+00  0.12525980253E-10  0.17130000000E+03  0.17130000000E+03 0. -1.
       11    1    1    2    0    0  0.26833364936E-02 -0.28450637923E-03  0.64447249603E-02  0.70054936678E-02  0.51109989000E-03 0. -1.
     -623    1    1    2    0    0 -0.90628357166E-03  0.13199972220E-02  0.58944870926E-03  0.17130000001E+03  0.17130000000E+03 0. -1.
      622    1    1    2    0    0 -0.17770529220E-02 -0.10354908427E-02  0.39929657935E+01  0.39929944977E+01  0.15000000000E-01 0. -1.
</event>
<event>
 5   0  0.2306700E+09  0.9118800E+02  0.7818608E-02  0.1180000E+00
       11   -1    0    0    0    0  0.00000000000E+00  0.00000000000E+00  0.39999999673E+01  0.40000000000E+01  0.51109989000E-03 0. -1.
     -623   -1    0    0    0    0  0.00000000000E+00  0.00000000000E+00  0.12525980253E-10  0.17130000000E+03  0.17130000000E+03 0.  1.
       11    1    1    2    0    0  0.13218415659E-01 -0.74409762769E-02  0.30637412506E+00  0.30674983352E+00  0.51109989000E-03 0. -1.
     -623    1    1    2    0    0 -0.12920048836E-02  0.18952619966E-02  0.42957341473E-03  0.17130000002E+03  0.17130000000E+03 0.  1.
      622    1    1    2    0    0 -0.11926410775E-01  0.55457142802E-02  0.36931962693E+01  0.36932501510E+01  0.15000000000E-01 0. -1.
</event>
<event>
 5   0  0.2306700E+09  0.9118800E+02  0.7818608E-02  0.1180000E+00
       11   -1    0    0    0    0  0.00000000000E+00  0.00000000000E+00  0.39999999673E+01  0.40000000000E+01  0.51109989000E-03 0.  1.
     -623   -1    0    0    0    0  0.00000000000E+00  0.00000000000E+00  0.12525980253E-10  0.17130000000E+03  0.17130000000E+03 0. -1.
       11    1    1    2    0    0 -0.26502419263E-02  0.20593042297E-02  0.20352929697E+00  0.20355760969E+00  0.51109989000E-03 0.  1.
     -623    1    1    2    0    0 -0.32272312977E-03 -0.63588794655E-03  0.59345604902E-04  0.17130000000E+03  0.17130000000E+03 0. -1.
      622    1    1    2    0    0  0.29729650561E-02 -0.14234162831E-02  0.37964113248E+01  0.37964423888E+01  0.15000000000E-01 0.  1.
</event>
<event>
 5   0  0.2306700E+09  0.9118800E+02  0.7818608E-02  0.1180000E+00
       11   -1    0    0    0    0  0.00000000000E+00  0.00000000000E+00  0.39999999673E+01  0.40000000000E+01  0.51109989000E-03 0. -1.
     -623   -1    0    0    0    0  0.00000000000E+00  0.00000000000E+00  0.12525980253E-10  0.17130000000E+03  0.17130000000E+03 0.  1.
       11    1    1    2    0    0 -0.22025824310E-02  0.26208753121E-02  0.20202413408E-01  0.20496806731E-01  0.51109989000E-03 0. -1.
     -623    1    1    2    0    0  0.19644376649E-02 -0.79289903814E-03  0.32307101470E-03  0.17130000001E+03  0.17130000000E+03 0.  1.
      622    1    1    2    0    0  0.23814476605E-03 -0.18279762740E-02  0.39794744829E+01  0.39795031799E+01  0.15000000000E-01 0. -1.
</event>
<event>
 5   0  0.2306700E+09  0.9118800E+02  0.7818608E-02  0.1180000E+00
       11   -1    0    0    0    0  0.00000000000E+00  0.00000000000E+00  0.39999999673E+01  0.40000000000E+01  0.51109989000E-03 0.  1.
     -623   -1    0    0    0    0  0.00000000000E+00  0.00000000000E+00  0.12525980253E-10  0.17130000000E+03  0.17130000000E+03 0. -1.
       11    1    1    2    0    0 -0.78207035698E-03 -0.18852584917E-03  0.50711888847E-01  0.50720844527E-01  0.51109989000E-03 0.  1.
     -623    1    1    2    0    0  0.67913430291E-04 -0.24125424179E-03  0.37497498797E-04  0.17130000000E+03  0.17130000000E+03 0. -1.
      622    1    1    2    0    0  0.71415692657E-03  0.42978009139E-03  0.39492505881E+01  0.39492791624E+01  0.15000000000E-01 0.  1.
</event>
<event>
 5   0  0.2306700E+09  0.9118800E+02  0.7818608E-02  0.1180000E+00
       11   -1    0    0    0    0  0.00000000000E+00  0.00000000000E+00  0.39999999673E+01  0.40000000000E+01  0.51109989000E-03 0.  1.
     -623   -1    0    0    0    0  0.00000000000E+00  0.00000000000E+00  0.12525980253E-10  0.17130000000E+03  0.17130000000E+03 0. -1.
       11    1    1    2    0    0  0.16651040370E-02  0.76637883048E-04  0.10776489388E-01  0.10916610804E-01  0.51109989000E-03 0.  1.
     -623    1    1    2    0    0 -0.47085944400E-02 -0.37376649537E-02  0.17123743857E-03  0.17130000011E+03  0.17130000000E+03 0. -1.
      622    1    1    2    0    0  0.30434904034E-02  0.36610270710E-02  0.39890522409E+01  0.39890832839E+01  0.15000000000E-01 0.  1.
</event>
<event>
 5   0  0.2306700E+09  0.9118800E+02  0.7818608E-02  0.1180000E+00
       11   -1    0    0    0    0  0.00000000000E+00  0.00000000000E+00  0.39999999673E+01  0.40000000000E+01  0.51109989000E-03 0. -1.
     -623   -1    0    0    0    0  0.00000000000E+00  0.00000000000E+00  0.12525980253E-10  0.17130000000E+03  0.17130000000E+03 0. -1.
       11    1    1    2    0    0 -0.28785123630E-02  0.22660298356E-02  0.45524748809E+00  0.45526251478E+00  0.51109989000E-03 0. -1.
     -623    1    1    2    0    0 -0.11692149555E-02  0.19242213853E-02  0.51533930778E-04  0.17130000001E+03  0.17130000000E+03 0. -1.
      622    1    1    2    0    0  0.40477273167E-02 -0.41902512180E-02  0.35447009392E+01  0.35447374643E+01  0.15000000000E-01 0.  0.
</event>
<event>
 5   0  0.2306700E+09  0.9118800E+02  0.7818608E-02  0.1180000E+00
       11   -1    0    0    0    0  0.00000000000E+00  0.00000000000E+00  0.39999999673E+01  0.40000000000E+01  0.51109989000E-03 0.  1.
     -623   -1    0    0    0    0  0.00000000000E+00  0.00000000000E+00  0.12525980253E-10  0.17130000000E+03  0.17130000000E+03 0.  1.
       11    1    1    2    0    0 -0.40563083642E-02 -0.34080762033E-02  0.14499589244E-01  0.15445644397E-01  0.51109989000E-03 0.  1.
     -623    1    1    2    0    0 -0.74568584714E-03  0.24403137963E-02  0.97728954306E-03  0.17130000002E+03  0.17130000000E+03 0.  1.
      622    1    1    2    0    0  0.48019942113E-02  0.96776240699E-03  0.39845230886E+01  0.39845543338E+01  0.15000000000E-01 0.  1.
</event>
<event>
 5   0  0.2306700E+09  0.9118800E+02  0.7818608E-02  0.1180000E+00
       11   -1    0    0    0    0  0.00000000000E+00  0.00000000000E+00  0.39999999673E+01  0.40000000000E+01  0.51109989000E-03 0.  1.
     -623   -1    0    0    0    0  0.00000000000E+00  0.00000000000E+00  0.12525980253E-10  0.17130000000E+03  0.17130000000E+03 0.  1.
       11    1    1    2    0    0 -0.29785546675E-02 -0.79514581174E-02  0.10153422273E+01  0.10153778593E+01  0.51109989000E-03 0.  1.
     -623    1    1    2    0    0  0.16529886899E-02  0.71835666227E-02  0.73844616657E-04  0.17130000016E+03  0.17130000000E+03 0.  1.
      622    1    1    2    0    0  0.13255659776E-02  0.76789149476E-03  0.29845838954E+01  0.29846219820E+01  0.15000000000E-01 0.  1.
</event>
<event>
 5   0  0.2306700E+09  0.9118800E+02  0.7818608E-02  0.1180000E+00
       11   -1    0    0    0    0  0.00000000000E+00  0.00000000000E+00  0.39999999673E+01  0.40000000000E+01  0.51109989000E-03 0. -1.
     -623   -1    0    0    0    0  0.00000000000E+00  0.00000000000E+00  0.12525980253E-10  0.17130000000E+03  0.17130000000E+03 0. -1.
       11    1    1    2    0    0  0.21909614885E-03  0.30924476428E-03  0.21272331097E-02  0.22203556578E-02  0.51109989000E-03 0. -1.
     -623    1    1    2    0    0  0.52289237204E-04 -0.66118145873E-03  0.12125665696E-03  0.17130000000E+03  0.17130000000E+03 0. -1.
      622    1    1    2    0    0 -0.27138538610E-03  0.35193669502E-03  0.39977514811E+01  0.39977796465E+01  0.15000000000E-01 0. -1.
</event>
<event>
 5   0  0.2306700E+09  0.9118800E+02  0.7818608E-02  0.1180000E+00
       11   -1    0    0    0    0  0.00000000000E+00  0.00000000000E+00  0.39999999673E+01  0.40000000000E+01  0.51109989000E-03 0.  1.
     -623   -1    0    0    0    0  0.00000000000E+00  0.00000000000E+00  0.12525980253E-10  0.17130000000E+03  0.17130000000E+03 0. -1.
       11    1    1    2    0    0  0.31389527866E-03  0.38908127291E-02  0.57601821662E-01  0.57736193465E-01  0.51109989000E-03 0.  1.
     -623    1    1    2    0    0 -0.48165722199E-03  0.19469043569E-03  0.16499759535E-03  0.17130000000E+03  0.17130000000E+03 0. -1.
      622    1    1    2    0    0  0.16776194331E-03 -0.40855031647E-02  0.39422331479E+01  0.39422638055E+01  0.15000000000E-01 0.  1.
</event>
<event>
 5   0  0.2306700E+09  0.9118800E+02  0.7818608E-02  0.1180000E+00
       11   -1    0    0    0    0  0.00000000000E+00  0.00000000000E+00  0.39999999673E+01  0.40000000000E+01  0.51109989000E-03 0.  1.
     -623   -1    0    0    0    0  0.00000000000E+00  0.00000000000E+00  0.12525980253E-10  0.17130000000E+03  0.17130000000E+03 0.  1.
       11    1    1    2    0    0  0.10480958111E-03 -0.44283976665E-03  0.32325832170E-01  0.32333075027E-01  0.51109989000E-03 0.  1.
     -623    1    1    2    0    0 -0.18382619981E-03 -0.20607917308E-03  0.35618591969E-04  0.17130000000E+03  0.17130000000E+03 0.  1.
      622    1    1    2    0    0  0.79016618713E-04  0.64891893974E-03  0.39676385169E+01  0.39676669250E+01  0.15000000000E-01 0.  1.
</event>
<event>
 5   0  0.2306700E+09  0.9118800E+02  0.7818608E-02  0.1180000E+00
       11   -1    0    0    0    0  0.00000000000E+00  0.00000000000E+00  0.39999999673E+01  0.40000000000E+01  0.51109989000E-03 0.  1.
     -623   -1    0    0    0    0  0.00000000000E+00  0.00000000000E+00  0.12525980253E-10  0.17130000000E+03  0.17130000000E+03 0.  1.
       11    1    1    2    0    0  0.22286676732E-02  0.60071466961E-02  0.54834346595E+00  0.54838113629E+00  0.51109989000E-03 0.  1.
     -623    1    1    2    0    0 -0.10771620834E-02  0.96668789822E-03  0.77474699617E-04  0.17130000001E+03  0.17130000000E+03 0.  1.
      622    1    1    2    0    0 -0.11515055898E-02 -0.69738345943E-02  0.34515790267E+01  0.34516188576E+01  0.15000000000E-01 0.  1.
</event>
<event>
 5   0  0.2306700E+09  0.9118800E+02  0.7818608E-02  0.1180000E+00
       11   -1    0    0    0    0  0.00000000000E+00  0.00000000000E+00  0.39999999673E+01  0.40000000000E+01  0.51109989000E-03 0. -1.
     -623   -1    0    0    0    0  0.00000000000E+00  0.00000000000E+00  0.12525980253E-10  0.17130000000E+03  0.17130000000E+03 0.  1.
       11    1    1    2    0    0 -0.86249073629E-03  0.66621029817E-03  0.99266808985E-01  0.99274106974E-01  0.51109989000E-03 0. -1.
     -623    1    1    2    0    0  0.31055247360E-02  0.19649804346E-03  0.36874821227E-04  0.17130000003E+03  0.17130000000E+03 0.  1.
      622    1    1    2    0    0 -0.22430340028E-02 -0.86270834182E-03  0.39006962875E+01  0.39007258687E+01  0.15000000000E-01 0. -1.
</event>
<event>
 5   0  0.2306700E+09  0.9118800E+02  0.7818608E-02  0.1180000E+00
       11   -1    0    0    0    0  0.00000000000E+00  0.00000000000E+00  0.39999999673E+01  0.40000000000E+01  0.51109989000E-03 0.  1.
     -623   -1    0    0    0    0  0.00000000000E+00  0.00000000000E+00  0.12525980253E-10  0.17130000000E+03  0.17130000000E+03 0.  1.
       11    1    1    2    0    0  0.10230923951E-02  0.39276335998E-03  0.55576686235E-01  0.55589839513E-01  0.51109989000E-03 0.  1.
     -623    1    1    2    0    0 -0.19948167532E-02 -0.82405742199E-03  0.41798992787E-04  0.17130000001E+03  0.17130000000E+03 0.  1.
      622    1    1    2    0    0  0.97172436035E-03  0.43129406292E-03  0.39443814866E+01  0.39444101513E+01  0.15000000000E-01 0.  1.
</event>
<event>
 5   0  0.2306700E+09  0.9118800E+02  0.7818608E-02  0.1180000E+00
       11   -1    0    0    0    0  0.00000000000E+00  0.00000000000E+00  0.39999999673E+01  0.40000000000E+01  0.51109989000E-03 0. -1.
     -623   -1    0    0    0    0  0.00000000000E+00  0.00000000000E+00  0.12525980253E-10  0.17130000000E+03  0.17130000000E+03 0. -1.
       11    1    1    2    0    0  0.23463060929E-02 -0.33980449598E-03  0.44534128502E-01  0.44600117057E-01  0.51109989000E-03 0. -1.
     -623    1    1    2    0    0 -0.83068107978E-03 -0.13522057238E-02  0.95057805281E-04  0.17130000001E+03  0.17130000000E+03 0. -1.
      622    1    1    2    0    0 -0.15156250131E-02  0.16920102197E-02  0.39553707811E+01  0.39553998756E+01  0.15000000000E-01 0. -1.
</event>
<event>
 5   0  0.2306700E+09  0.9118800E+02  0.7818608E-02  0.1180000E+00
       11   -1    0    0    0    0  0.00000000000E+00  0.00000000000E+00  0.39999999673E+01  0.40000000000E+01  0.51109989000E-03 0.  1.
     -623   -1    0    0    0    0  0.00000000000E+00  0.00000000000E+00  0.12525980253E-10  0.17130000000E+03  0.17130000000E+03 0.  1.
       11    1    1    2    0    0 -0.14175479130E-03 -0.14125213283E-03  0.41175461962E-01  0.41179120164E-01  0.51109989000E-03 0.  1.
     -623    1    1    2    0    0 -0.20095317672E-04 -0.38607606941E-04  0.32050618877E-04  0.17130000000E+03  0.17130000000E+03 0.  1.
      622    1    1    2    0    0  0.16185010901E-03  0.17985973984E-03  0.39587924621E+01  0.39588208871E+01  0.15000000000E-01 0.  1.
</event>
<event>
 5   0  0.2306700E+09  0.9118800E+02  0.7818608E-02  0.1180000E+00
       11   -1    0    0    0    0  0.00000000000E+00  0.00000000000E+00  0.39999999673E+01  0.40000000000E+01  0.51109989000E-03 0. -1.
     -623   -1    0    0    0    0  0.00000000000E+00  0.00000000000E+00  0.12525980253E-10  0.17130000000E+03  0.17130000000E+03 0.  1.
       11    1    1    2    0    0 -0.10990369171E-02 -0.23754692571E-02  0.54297120041E+00  0.54297774948E+00  0.51109989000E-03 0. -1.
     -623    1    1    2    0    0  0.53598970956E-03  0.67433929078E-02  0.41997917175E-04  0.17130000013E+03  0.17130000000E+03 0.  1.
      622    1    1    2    0    0  0.56304720755E-03 -0.43679236507E-02  0.34569867690E+01  0.34570221169E+01  0.15000000000E-01 0. -1.
</event>
<event>
 5   0  0.2306700E+09  0.9118800E+02  0.7818608E-02  0.1180000E+00
       11   -1    0    0    0    0  0.00000000000E+00  0.00000000000E+00  0.39999999673E+01  0.40000000000E+01  0.51109989000E-03 0. -1.
     -623   -1    0    0    0    0  0.00000000000E+00  0.00000000000E+00  0.12525980253E-10  0.17130000000E+03  0.17130000000E+03 0.  1.
       11    1    1    2    0    0  0.62701673796E-02  0.12287044368E-02  0.28310308329E+00  0.28317563755E+00  0.51109989000E-03 0. -1.
     -623    1    1    2    0    0  0.56935073150E-04 -0.32188054377E-03  0.10828581146E-03  0.17130000000E+03  0.17130000000E+03 0.  1.
      622    1    1    2    0    0 -0.63271024528E-02 -0.90682389303E-03  0.37167885983E+01  0.37168243621E+01  0.15000000000E-01 0. -1.
</event>
<event>
 5   0  0.2306700E+09  0.9118800E+02  0.7818608E-02  0.1180000E+00
       11   -1    0    0    0    0  0.00000000000E+00  0.00000000000E+00  0.39999999673E+01  0.40000000000E+01  0.51109989000E-03 0. -1.
     -623   -1    0    0    0    0  0.00000000000E+00  0.00000000000E+00  0.12525980253E-10  0.17130000000E+03  0.17130000000E+03 0. -1.
       11    1    1    2    0    0 -0.34922535672E-02  0.36223244565E-02  0.53132853233E+00  0.53135260192E+00  0.51109989000E-03 0. -1.
     -623    1    1    2    0    0 -0.24958412330E-03  0.14948513630E-03  0.60539791513E-04  0.17130000000E+03  0.17130000000E+03 0. -1.
      622    1    1    2    0    0  0.37418376907E-02 -0.37718095929E-02  0.34686108993E+01  0.34686474019E+01  0.15000000000E-01 0.  0.
</event>
<event>
 5   0  0.2306700E+09  0.9118800E+02  0.7818608E-02  0.1180000E+00
       11   -1    0    0    0    0  0.00000000000E+00  0.00000000000E+00  0.39999999673E+01  0.40000000000E+01  0.51109989000E-03 0. -1.
     -623   -1    0    0    0    0  0.00000000000E+00  0.00000000000E+00  0.12525980253E-10  0.17130000000E+03  0.17130000000E+03 0.  1.
       11    1    1    2    0    0  0.22216271379E-02  0.10504915447E-02  0.53490042490E+00  0.53490631417E+00  0.51109989000E-03 0. -1.
     -623    1    1    2    0    0 -0.12320378548E-02 -0.55567378940E-02  0.41489455475E-04  0.17130000009E+03  0.17130000000E+03 0.  1.
      622    1    1    2    0    0 -0.98958928127E-03  0.45062463576E-02  0.34650580590E+01  0.34650935973E+01  0.15000000000E-01 0. -1.
</event>
<event>
 5   0  0.2306700E+09  0.9118800E+02  0.7818608E-02  0.1180000E+00
       11   -1    0    0    0    0  0.00000000000E+00  0.00000000000E+00  0.39999999673E+01  0.40000000000E+01  0.51109989000E-03 0.  1.
     -623   -1    0    0    0    0  0.00000000000E+00  0.00000000000E+00  0.12525980253E-10  0.17130000000E+03  0.17130000000E+03 0.  1.
       11    1    1    2    0    0 -0.83316373539E-03  0.19711381722E-02  0.27627988239E-01  0.27715456040E-01  0.51109989000E-03 0.  1.
     -623    1    1    2    0    0  0.89347424724E-03 -0.50256087099E-03  0.11603153277E-03  0.17130000000E+03  0.17130000000E+03 0.  1.
      622    1    1    2    0    0 -0.60310511854E-04 -0.14685773012E-02  0.39722559476E+01  0.39722845409E+01  0.15000000000E-01 0.  1.
</event>
<event>
 5   0  0.2306700E+09  0.9118800E+02  0.7818608E-02  0.1180000E+00
       11   -1    0    0    0    0  0.00000000000E+00  0.00000000000E+00  0.39999999673E+01  0.40000000000E+01  0.51109989000E-03 0.  1.
     -623   -1    0    0    0    0  0.00000000000E+00  0.00000000000E+00  0.12525980253E-10  0.17130000000E+03  0.17130000000E+03 0. -1.
       11    1    1    2    0    0 -0.90670436634E-03 -0.36945936603E-04  0.17545666100E-01  0.17576549678E-01  0.51109989000E-03 0.  1.
     -623    1    1    2    0    0 -0.30954305754E-03 -0.28207782720E-03  0.59299194110E-04  0.17130000000E+03  0.17130000000E+03 0. -1.
      622    1    1    2    0    0  0.12162474239E-02  0.31902376380E-03  0.39823950021E+01  0.39824234498E+01  0.15000000000E-01 0.  1.
</event>
<event>
 5   0  0.2306700E+09  0.9118800E+02  0.7818608E-02  0.1180000E+00
       11   -1    0    0    0    0  0.00000000000E+00  0.00000000000E+00  0.39999999673E+01  0.40000000000E+01  0.51109989000E-03 0.  1.
     -623   -1    0    0    0    0  0.00000000000E+00  0.00000000000E+00  0.12525980253E-10  0.17130000000E+03  0.17130000000E+03 0.  1.
       11    1    1    2    0    0 -0.43038393321E-03  0.31831737393E-03  0.61641242056E-01  0.61645685183E-01  0.51109989000E-03 0.  1.
     -623    1    1    2    0    0 -0.17643982110E-04  0.56992420255E-04  0.33019200928E-04  0.17130000000E+03  0.17130000000E+03 0.  1.
      622    1    1    2    0    0  0.44802791535E-03 -0.37530979429E-03  0.39383257132E+01  0.39383543219E+01  0.15000000000E-01 0.  1.
</event>
<event>
 5   0  0.2306700E+09  0.9118800E+02  0.7818608E-02  0.1180000E+00
       11   -1    0    0    0    0  0.00000000000E+00  0.00000000000E+00  0.39999999673E+01  0.40000000000E+01  0.51109989000E-03 0.  1.
     -623   -1    0    0    0    0  0.00000000000E+00  0.00000000000E+00  0.12525980253E-10  0.17130000000E+03  0.17130000000E+03 0. -1.
       11    1    1    2    0    0  0.20603189899E-02  0.23722962864E-02  0.14831751447E+00  0.14835167349E+00  0.51109989000E-03 0.  1.
     -623    1    1    2    0    0 -0.36000883924E-04 -0.12819749506E-03  0.64520538156E-04  0.17130000000E+03  0.17130000000E+03 0. -1.
      622    1    1    2    0    0 -0.20243181059E-02 -0.22440987914E-02  0.38516179299E+01  0.38516483240E+01  0.15000000000E-01 0.  1.
</event>
<event>
 5   0  0.2306700E+09  0.9118800E+02  0.7818608E-02  0.1180000E+00
       11   -1    0    0    0    0  0.00000000000E+00  0.00000000000E+00  0.39999999673E+01  0.40000000000E+01  0.51109989000E-03 0. -1.
     -623   -1    0    0    0    0  0.00000000000E+00  0.00000000000E+00  0.12525980253E-10  0.17130000000E+03  0.17130000000E+03 0.  1.
       11    1    1    2    0    0  0.54651451815E-02 -0.50349539772E-02  0.22088025480E+00  0.22100580706E+00  0.51109989000E-03 0. -1.
     -623    1    1    2    0    0 -0.31230455263E-02  0.77184837442E-02  0.15717060646E-03  0.17130000020E+03  0.17130000000E+03 0.  1.
      622    1    1    2    0    0 -0.23420996561E-02 -0.26835297649E-02  0.37789625408E+01  0.37789939894E+01  0.15000000000E-01 0. -1.
</event>
<event>
 5   0  0.2306700E+09  0.9118800E+02  0.7818608E-02  0.1180000E+00
       11   -1    0    0    0    0  0.00000000000E+00  0.00000000000E+00  0.39999999673E+01  0.40000000000E+01  0.51109989000E-03 0. -1.
     -623   -1    0    0    0    0  0.00000000000E+00  0.00000000000E+00  0.12525980253E-10  0.17130000000E+03  0.17130000000E+03 0.  1.
       11    1    1    2    0    0  0.86652956027E-03  0.21636299580E-02  0.31663280154E+00  0.31664179194E+00  0.51109989000E-03 0. -1.
     -623    1    1    2    0    0  0.13256526134E-02 -0.92504187056E-03  0.40368900284E-04  0.17130000001E+03  0.17130000000E+03 0.  1.
      622    1    1    2    0    0 -0.21921821728E-02 -0.12385880880E-02  0.36833267943E+01  0.36833581978E+01  0.15000000000E-01 0. -1.
</event>
<event>
 5   0  0.2306700E+09  0.9118800E+02  0.7818608E-02  0.1180000E+00
       11   -1    0    0    0    0  0.00000000000E+00  0.00000000000E+00  0.39999999673E+01  0.40000000000E+01  0.51109989000E-03 0.  1.
     -623   -1    0    0    0    0  0.00000000000E+00  0.00000000000E+00  0.12525980253E-10  0.17130000000E+03  0.17130000000E+03 0.  1.
       11    1    1    2    0    0 -0.26856820747E-03 -0.39865890273E-03  0.11584833843E+00  0.11585046308E+00  0.51109989000E-03 0.  1.
     -623    1    1    2    0    0 -0.34052240882E-02  0.35022529058E-02  0.34103029518E-04  0.17130000007E+03  0.17130000000E+03 0.  1.
      622    1    1    2    0    0  0.36737922957E-02 -0.31035940030E-02  0.38841175259E+01  0.38841494673E+01  0.15000000000E-01 0.  1.
</event>
<event>
 5   0  0.2306700E+09  0.9118800E+02  0.7818608E-02  0.1180000E+00
       11   -1    0    0    0    0  0.00000000000E+00  0.00000000000E+00  0.39999999673E+01  0.40000000000E+01  0.51109989000E-03 0.  1.
     -623   -1    0    0    0    0  0.00000000000E+00  0.00000000000E+00  0.12525980253E-10  0.17130000000E+03  0.17130000000E+03 0. -1.
       11    1    1    2    0    0 -0.22223812016E-04  0.78341576186E-03  0.24173973602E+00  0.24174154675E+00  0.51109989000E-03 0.  1.
     -623    1    1    2    0    0  0.21883933761E-02 -0.63971472708E-03  0.32354485194E-04  0.17130000002E+03  0.17130000000E+03 0. -1.
      622    1    1    2    0    0 -0.21661695640E-02 -0.14370103479E-03  0.37582278769E+01  0.37582584381E+01  0.15000000000E-01 0.  1.
</event>
<event>
 5   0  0.2306700E+09  0.9118800E+02  0.7818608E-02  0.1180000E+00
       11   -1    0    0    0    0  0.00000000000E+00  0.00000000000E+00  0.39999999673E+01  0.40000000000E+01  0.51109989000E-03 0.  1.
     -623   -1    0    0    0    0  0.00000000000E+00  0.00000000000E+00  0.12525980253E-10  0.17130000000E+03  0.17130000000E+03 0.  1.
       11    1    1    2    0    0 -0.59465933137E-04  0.10381237552E-03  0.45612411442E-01  0.45615431728E-01  0.51109989000E-03 0.  1.
     -623    1    1    2    0    0 -0.42446312237E-03  0.34799604343E-03  0.31493486381E-04  0.17130000000E+03  0.17130000000E+03 0.  1.
      622    1    1    2    0    0  0.48392905550E-03 -0.45180841895E-03  0.39543560624E+01  0.39543845674E+01  0.15000000000E-01 0.  1.
</event>
<event>
 5   0  0.2306700E+09  0.9118800E+02  0.7818608E-02  0.1180000E+00
       11   -1    0    0    0    0  0.00000000000E+00  0.00000000000E+00  0.39999999673E+01  0.40000000000E+01  0.51109989000E-03 0. -1.
     -623   -1    0    0    0    0  0.00000000000E+00  0.00000000000E+00  0.12525980253E-10  0.17130000000E+03  0.17130000000E+03 0.  1.
       11    1    1    2    0    0 -0.22296327886E-03  0.34070809077E-02  0.21075526376E+00  0.21078353906E+00  0.51109989000E-03 0. -1.
     -623    1    1    2    0    0 -0.22109117010E-02 -0.34932184270E-02  0.58764827732E-04  0.17130000005E+03  0.17130000000E+03 0.  1.
      622    1    1    2    0    0  0.24338749799E-02  0.86137519387E-04  0.37891859388E+01  0.37892164110E+01  0.15000000000E-01 0. -1.
</event>
<event>
 5   0  0.2306700E+09  0.9118800E+02  0.7818608E-02  0.1180000E+00
       11   -1    0    0    0    0  0.00000000000E+00  0.00000000000E+00  0.39999999673E+01  0.40000000000E+01  0.51109989000E-03 0.  1.
     -623   -1    0    0    0    0  0.00000000000E+00  0.00000000000E+00  0.12525980253E-10  0.17130000000E+03  0.17130000000E+03 0.  1.
       11    1    1    2    0    0  0.19809801784E-02  0.10829028123E-02  0.17129016181E+00  0.17130580176E+00  0.51109989000E-03 0.  1.
     -623    1    1    2    0    0 -0.18834324916E-03  0.78079741299E-03  0.45865970140E-04  0.17130000000E+03  0.17130000000E+03 0.  1.
      622    1    1    2    0    0 -0.17926369291E-02 -0.18637002261E-02  0.38286639435E+01  0.38286942003E+01  0.15000000000E-01 0.  1.
</event>
<event>
 5   0  0.2306700E+09  0.9118800E+02  0.7818608E-02  0.1180000E+00
       11   -1    0    0    0    0  0.00000000000E+00  0.00000000000E+00  0.39999999673E+01  0.40000000000E+01  0.51109989000E-03 0. -1.
     -623   -1    0    0    0    0  0.00000000000E+00  0.00000000000E+00  0.12525980253E-10  0.17130000000E+03  0.17130000000E+03 0. -1.
       11    1    1    2    0    0  0.30549390842E-02  0.28844346741E-02  0.91042062002E+00  0.91043045819E+00  0.51109989000E-03 0. -1.
     -623    1    1    2    0    0 -0.74017850286E-04  0.21707637100E-03  0.49213574577E-04  0.17130000000E+03  0.17130000000E+03 0. -1.
      622    1    1    2    0    0 -0.29809212339E-02 -0.31015110451E-02  0.30895301338E+01  0.30895695416E+01  0.15000000000E-01 0. -1.
</event>
<event>
 5   0  0.2306700E+09  0.9118800E+02  0.7818608E-02  0.1180000E+00
       11   -1    0    0    0    0  0.00000000000E+00  0.00000000000E+00  0.39999999673E+01  0.40000000000E+01  0.51109989000E-03 0. -1.
     -623   -1    0    0    0    0  0.00000000000E+00  0.00000000000E+00  0.12525980253E-10  0.17130000000E+03  0.17130000000E+03 0. -1.
       11    1    1    2    0    0 -0.97245123367E-02 -0.31136080406E-02  0.11873408708E+01  0.11873848852E+01  0.51109989000E-03 0. -1.
     -623    1    1    2    0    0 -0.22822492035E-03 -0.71530080244E-04  0.10339376876E-03  0.17130000000E+03  0.17130000000E+03 0. -1.
      622    1    1    2    0    0  0.99527372571E-02  0.31851381209E-02  0.28125557033E+01  0.28126151152E+01  0.15000000000E-01 0.  0.
</event>
<event>
 5   0  0.2306700E+09  0.9118800E+02  0.7818608E-02  0.1180000E+00
       11   -1    0    0    0    0  0.00000000000E+00  0.00000000000E+00  0.39999999673E+01  0.40000000000E+01  0.51109989000E-03 0.  1.
     -623   -1    0    0    0    0  0.00000000000E+00  0.00000000000E+00  0.12525980253E-10  0.17130000000E+03  0.17130000000E+03 0. -1.
       11    1    1    2    0    0  0.58392018731E-03  0.39104463527E-02  0.43334092943E+00  0.43335926769E+00  0.51109989000E-03 0.  1.
     -623    1    1    2    0    0  0.28065566715E-02 -0.37800867213E-02  0.51526656571E-04  0.17130000006E+03  0.17130000000E+03 0. -1.
      622    1    1    2    0    0 -0.33904768588E-02 -0.13035963135E-03  0.35666075113E+01  0.35666406676E+01  0.15000000000E-01 0.  1.
</event>
<event>
 5   0  0.2306700E+09  0.9118800E+02  0.7818608E-02  0.1180000E+00
       11   -1    0    0    0    0  0.00000000000E+00  0.00000000000E+00  0.39999999673E+01  0.40000000000E+01  0.51109989000E-03 0.  1.
     -623   -1    0    0    0    0  0.00000000000E+00  0.00000000000E+00  0.12525980253E-10  0.17130000000E+03  0.17130000000E+03 0. -1.
       11    1    1    2    0    0 -0.25717423117E-02 -0.38205245679E-02  0.67604693340E-01  0.67763309033E-01  0.51109989000E-03 0.  1.
     -623    1    1    2    0    0 -0.33916396057E-03 -0.33869737648E-03  0.19047070992E-03  0.17130000000E+03  0.17130000000E+03 0. -1.
      622    1    1    2    0    0  0.29109062724E-02  0.41592219446E-02  0.39322048053E+01  0.39322366922E+01  0.15000000000E-01 0.  1.
</event>
<event>
 5   0  0.2306700E+09  0.9118800E+02  0.7818608E-02  0.1180000E+00
       11   -1    0    0    0    0  0.00000000000E+00  0.00000000000E+00  0.39999999673E+01  0.40000000000E+01  0.51109989000E-03 0.  1.
     -623   -1    0    0    0    0  0.00000000000E+00  0.00000000000E+00  0.12525980253E-10  0.17130000000E+03  0.17130000000E+03 0.  1.
       11    1    1    2    0    0 -0.46612995343E-02  0.31134136339E-02  0.17489506618E+00  0.17498561785E+00  0.51109989000E-03 0.  1.
     -623    1    1    2    0    0 -0.25161729256E-02  0.11699528565E-02  0.12908583222E-03  0.17130000002E+03  0.17130000000E+03 0.  1.
      622    1    1    2    0    0  0.71774724602E-02 -0.42833664905E-02  0.38249758157E+01  0.38250143600E+01  0.15000000000E-01 0.  1.
</event>
<event>
 5   0  0.2306700E+09  0.9118800E+02  0.7818608E-02  0.1180000E+00
       11   -1    0    0    0    0  0.00000000000E+00  0.00000000000E+00  0.39999999673E+01  0.40000000000E+01  0.51109989000E-03 0. -1.
     -623   -1    0    0    0    0  0.00000000000E+00  0.00000000000E+00  0.12525980253E-10  0.17130000000E+03  0.17130000000E+03 0.  1.
       11    1    1    2    0    0  0.12358293561E-01  0.34420885161E-02  0.65517806039E+00  0.65530384360E+00  0.51109989000E-03 0. -1.
     -623    1    1    2    0    0 -0.30540934010E-03 -0.53257292952E-03  0.18236983667E-03  0.17130000000E+03  0.17130000000E+03 0.  1.
      622    1    1    2    0    0 -0.12052884221E-01 -0.29095155866E-02  0.33446395371E+01  0.33446961552E+01  0.15000000000E-01 0. -1.
</event>
<event>
 5   0  0.2306700E+09  0.9118800E+02  0.7818608E-02  0.1180000E+00
       11   -1    0    0    0    0  0.00000000000E+00  0.00000000000E+00  0.39999999673E+01  0.40000000000E+01  0.51109989000E-03 0. -1.
     -623   -1    0    0    0    0  0.00000000000E+00  0.00000000000E+00  0.12525980253E-10  0.17130000000E+03  0.17130000000E+03 0. -1.
       11    1    1    2    0    0 -0.97469705632E-03 -0.26039501015E-02  0.83244573142E-01  0.83292561319E-01  0.51109989000E-03 0. -1.
     -623    1    1    2    0    0 -0.31890290503E-02  0.10080087388E-02  0.79249747364E-04  0.17130000003E+03  0.17130000000E+03 0. -1.
      622    1    1    2    0    0  0.41637261089E-02  0.15959413620E-02  0.39166761473E+01  0.39167074088E+01  0.15000000000E-01 0. -1.
</event>
<event>
 5   0  0.2306700E+09  0.9118800E+02  0.7818608E-02  0.1180000E+00
       11   -1    0    0    0    0  0.00000000000E+00  0.00000000000E+00  0.39999999673E+01  0.40000000000E+01  0.51109989000E-03 0. -1.
     -623   -1    0    0    0    0  0.00000000000E+00  0.00000000000E+00  0.12525980253E-10  0.17130000000E+03  0.17130000000E+03 0.  1.
       11    1    1    2    0    0  0.96593676195E-03 -0.65052271903E-02  0.91587461302E+00  0.91589836718E+00  0.51109989000E-03 0. -1.
     -623    1    1    2    0    0  0.32572724126E-02  0.66011612132E-03  0.68661968251E-04  0.17130000003E+03  0.17130000000E+03 0.  1.
      622    1    1    2    0    0 -0.42232091750E-02  0.58451110689E-02  0.30840566929E+01  0.30841016010E+01  0.15000000000E-01 0. -1.
</event>
<event>
 5   0  0.2306700E+09  0.9118800E+02  0.7818608E-02  0.1180000E+00
       11   -1    0    0    0    0  0.00000000000E+00  0.00000000000E+00  0.39999999673E+01  0.40000000000E+01  0.51109989000E-03 0.  1.
     -623   -1    0    0    0    0  0.00000000000E+00  0.00000000000E+00  0.12525980253E-10  0.17130000000E+03  0.17130000000E+03 0.  1.
       11    1    1    2    0    0  0.43091008089E-03  0.50151730116E-03  0.99861946218E-01  0.99865443108E-01  0.51109989000E-03 0.  1.
     -623    1    1    2    0    0  0.26863291948E-03  0.91282256103E-03  0.32631347279E-04  0.17130000000E+03  0.17130000000E+03 0.  1.
      622    1    1    2    0    0 -0.69954300037E-03 -0.14143398622E-02  0.39001053898E+01  0.39001345542E+01  0.15000000000E-01 0.  1.
</event>
<event>
 5   0  0.2306700E+09  0.9118800E+02  0.7818608E-02  0.1180000E+00
       11   -1    0    0    0    0  0.00000000000E+00  0.00000000000E+00  0.39999999673E+01  0.40000000000E+01  0.51109989000E-03 0.  1.
     -623   -1    0    0    0    0  0.00000000000E+00  0.00000000000E+00  0.12525980253E-10  0.17130000000E+03  0.17130000000E+03 0. -1.
       11    1    1    2    0    0 -0.11711255431E-03 -0.78914481869E-03  0.45108406254E-01  0.45118355475E-01  0.51109989000E-03 0.  1.
     -623    1    1    2    0    0  0.88114800459E-04  0.80607007658E-04  0.38426162791E-04  0.17130000000E+03  0.17130000000E+03 0. -1.
      622    1    1    2    0    0  0.28997753856E-04  0.70853781103E-03  0.39548531349E+01  0.39548816445E+01  0.15000000000E-01 0.  1.
</event>
<event>
 5   0  0.2306700E+09  0.9118800E+02  0.7818608E-02  0.1180000E+00
       11   -1    0    0    0    0  0.00000000000E+00  0.00000000000E+00  0.39999999673E+01  0.40000000000E+01  0.51109989000E-03 0. -1.
     -623   -1    0    0    0    0  0.00000000000E+00  0.00000000000E+00  0.12525980253E-10  0.17130000000E+03  0.17130000000E+03 0.  1.
       11    1    1    2    0    0  0.13270581499E-02  0.60120040053E-02  0.87556992913E+00  0.87559172409E+00  0.51109989000E-03 0. -1.
     -623    1    1    2    0    0  0.50774469703E-02 -0.54079192504E-02  0.64552526835E-04  0.17130000016E+03  0.17130000000E+03 0.  1.
      622    1    1    2    0    0 -0.64045051288E-02 -0.60408474574E-03  0.31243654925E+01  0.31244081221E+01  0.15000000000E-01 0. -1.
</event>
<event>
 5   0  0.2306700E+09  0.9118800E+02  0.7818608E-02  0.1180000E+00
       11   -1    0    0    0    0  0.00000000000E+00  0.00000000000E+00  0.39999999673E+01  0.40000000000E+01  0.51109989000E-03 0. -1.
     -623   -1    0    0    0    0  0.00000000000E+00  0.00000000000E+00  0.12525980253E-10  0.17130000000E+03  0.17130000000E+03 0. -1.
       11    1    1    2    0    0  0.24547304425E-02 -0.66973882696E-03  0.78815819877E-02  0.82978798116E-02  0.51109989000E-03 0. -1.
     -623    1    1    2    0    0  0.54994319061E-03 -0.71021863546E-03  0.44582107830E-03  0.17130000000E+03  0.17130000000E+03 0. -1.
      622    1    1    2    0    0 -0.30046736330E-02  0.13799574623E-02  0.39916725635E+01  0.39917021165E+01  0.15000000000E-01 0. -1.
</event>
<event>
 5   0  0.2306700E+09  0.9118800E+02  0.7818608E-02  0.1180000E+00
       11   -1    0    0    0    0  0.00000000000E+00  0.00000000000E+00  0.39999999673E+01  0.40000000000E+01  0.51109989000E-03 0.  1.
     -623   -1    0    0    0    0  0.00000000000E+00  0.00000000000E+00  0.12525980253E-10  0.17130000000E+03  0.17130000000E+03 0.  1.
       11    1    1    2    0    0  0.41088731322E-02  0.51114327103E-02  0.79362345292E-01  0.79634494125E-01  0.51109989000E-03 0.  1.
     -623    1    1    2    0    0 -0.31279042534E-03  0.22622986750E-03  0.30628489543E-03  0.17130000000E+03  0.17130000000E+03 0.  1.
      622    1    1    2    0    0 -0.37960827068E-02 -0.53376625778E-02  0.39203313372E+01  0.39203655052E+01  0.15000000000E-01 0.  1.
</event>
<event>
 5   0  0.2306700E+09  0.9118800E+02  0.7818608E-02  0.1180000E+00
       11   -1    0    0    0    0  0.00000000000E+00  0.00000000000E+00  0.39999999673E+01  0.40000000000E+01  0.51109989000E-03 0.  1.
     -623   -1    0    0    0    0  0.00000000000E+00  0.00000000000E+00  0.12525980253E-10  0.17130000000E+03  0.17130000000E+03 0.  1.
       11    1    1    2    0    0 -0.40238319912E-02  0.24998451940E-02  0.27640951242E-01  0.28048598104E-01  0.51109989000E-03 0.  1.
     -623    1    1    2    0    0  0.27231783569E-03  0.19211146632E-03  0.43862271906E-03  0.17130000000E+03  0.17130000000E+03 0.  1.
      622    1    1    2    0    0  0.37515141555E-02 -0.26919566604E-02  0.39719203934E+01  0.39719514010E+01  0.15000000000E-01 0.  1.
</event>
<event>
 5   0  0.2306700E+09  0.9118800E+02  0.7818608E-02  0.1180000E+00
       11   -1    0    0    0    0  0.00000000000E+00  0.00000000000E+00  0.39999999673E+01  0.40000000000E+01  0.51109989000E-03 0.  1.
     -623   -1    0    0    0    0  0.00000000000E+00  0.00000000000E+00  0.12525980253E-10  0.17130000000E+03  0.17130000000E+03 0.  1.
       11    1    1    2    0    0  0.36812060837E-03 -0.29860560592E-02  0.88537977593E+00  0.88538503539E+00  0.51109989000E-03 0.  1.
     -623    1    1    2    0    0 -0.24328141028E-03  0.11145143216E-03  0.42676339457E-04  0.17130000000E+03  0.17130000000E+03 0.  1.
      622    1    1    2    0    0 -0.12483919809E-03  0.28746046270E-02  0.31145775151E+01  0.31146149644E+01  0.15000000000E-01 0.  1.
</event>
<event>
 5   0  0.2306700E+09  0.9118800E+02  0.7818608E-02  0.1180000E+00
       11   -1    0    0    0    0  0.00000000000E+00  0.00000000000E+00  0.39999999673E+01  0.40000000000E+01  0.51109989000E-03 0.  1.
     -623   -1    0    0    0    0  0.00000000000E+00  0.00000000000E+00  0.12525980253E-10  0.17130000000E+03  0.17130000000E+03 0.  1.
       11    1    1    2    0    0 -0.74212202189E-03  0.63538442195E-03  0.14853233679E-01  0.14894100587E-01  0.51109989000E-03 0.  1.
     -623    1    1    2    0    0 -0.16618979305E-03 -0.57249354291E-03  0.69169545169E-04  0.17130000000E+03  0.17130000000E+03 0.  1.
      622    1    1    2    0    0  0.90831181523E-03 -0.62890878026E-04  0.39850775712E+01  0.39851059054E+01  0.15000000000E-01 0.  1.
</event>
<event>
 5   0  0.2306700E+09  0.9118800E+02  0.7818608E-02  0.1180000E+00
       11   -1    0    0    0    0  0.00000000000E+00  0.00000000000E+00  0.39999999673E+01  0.40000000000E+01  0.51109989000E-03 0.  1.
     -623   -1    0    0    0    0  0.00000000000E+00  0.00000000000E+00  0.12525980253E-10  0.17130000000E+03  0.17130000000E+03 0. -1.
       11    1    1    2    0    0 -0.17578808936E-03  0.33689616241E-03  0.58108392365E-02  0.58456373653E-02  0.51109989000E-03 0.  1.
     -623    1    1    2    0    0  0.25301099204E-03 -0.22144850733E-03  0.62934506751E-04  0.17130000000E+03  0.17130000000E+03 0. -1.
      622    1    1    2    0    0 -0.77222902926E-04 -0.11544765486E-03  0.39941261975E+01  0.39941543662E+01  0.15000000000E-01 0.  1.
</event>
<event>
 5   0  0.2306700E+09  0.9118800E+02  0.7818608E-02  0.1180000E+00
       11   -1    0    0    0    0  0.00000000000E+00  0.00000000000E+00  0.39999999673E+01  0.40000000000E+01  0.51109989000E-03 0. -1.
     -623   -1    0    0    0    0  0.00000000000E+00  0.00000000000E+00  0.12525980253E-10  0.17130000000E+03  0.17130000000E+03 0. -1.
       11    1    1    2    0    0 -0.10169949785E-02 -0.77140053095E-02  0.96610936117E+00  0.96614082779E+00  0.51109989000E-03 0. -1.
     -623    1    1    2    0    0 -0.54808558391E-04 -0.46067293150E-03  0.79719077909E-04  0.17130000000E+03  0.17130000000E+03 0. -1.
      622    1    1    2    0    0  0.10718035369E-02  0.81746782408E-02  0.30338108853E+01  0.30338591698E+01  0.15000000000E-01 0.  0.
</event>
<event>
 5   0  0.2306700E+09  0.9118800E+02  0.7818608E-02  0.1180000E+00
       11   -1    0    0    0    0  0.00000000000E+00  0.00000000000E+00  0.39999999673E+01  0.40000000000E+01  0.51109989000E-03 0. -1.
     -623   -1    0    0    0    0  0.00000000000E+00  0.00000000000E+00  0.12525980253E-10  0.17130000000E+03  0.17130000000E+03 0. -1.
       11    1    1    2    0    0 -0.84472750051E-03  0.20652137621E-02  0.31329943045E-01  0.31413456142E-01  0.51109989000E-03 0. -1.
     -623    1    1    2    0    0 -0.14295717886E-02  0.27707359111E-03  0.11317730766E-03  0.17130000001E+03  0.17130000000E+03 0. -1.
      622    1    1    2    0    0  0.22742992892E-02 -0.23422873532E-02  0.39685568472E+01  0.39685865378E+01  0.15000000000E-01 0. -1.
</event>
<event>
 5   0  0.2306700E+09  0.9118800E+02  0.7818608E-02  0.1180000E+00
       11   -1    0    0    0    0  0.00000000000E+00  0.00000000000E+00  0.39999999673E+01  0.40000000000E+01  0.51109989000E-03 0. -1.
     -623   -1    0    0    0    0  0.00000000000E+00  0.00000000000E+00  0.12525980253E-10  0.17130000000E+03  0.17130000000E+03 0. -1.
       11    1    1    2    0    0  0.15864831678E-03 -0.16756998428E-02  0.56820125636E-01  0.56847348552E-01  0.51109989000E-03 0. -1.
     -623    1    1    2    0    0  0.89488701965E-03  0.91678649672E-03  0.55939425160E-04  0.17130000000E+03  0.17130000000E+03 0. -1.
      622    1    1    2    0    0 -0.10535353364E-02  0.75891334609E-03  0.39431239023E+01  0.39431526466E+01  0.15000000000E-01 0. -1.
</event>
<event>
 5   0  0.2306700E+09  0.9118800E+02  0.7818608E-02  0.1180000E+00
       11   -1    0    0    0    0  0.00000000000E+00  0.00000000000E+00  0.39999999673E+01  0.40000000000E+01  0.51109989000E-03 0.  1.
     -623   -1    0    0    0    0  0.00000000000E+00  0.00000000000E+00  0.12525980253E-10  0.17130000000E+03  0.17130000000E+03 0.  1.
       11    1    1    2    0    0 -0.70071698740E-03 -0.92986888610E-03  0.33995220870E-02  0.36295501043E-02  0.51109989000E-03 0.  1.
     -623    1    1    2    0    0 -0.15107600165E-02  0.96636360439E-03  0.25876765791E-03  0.17130000001E+03  0.17130000000E+03 0.  1.
      622    1    1    2    0    0  0.22114770047E-02 -0.36494718840E-04  0.39963416799E+01  0.39963704426E+01  0.15000000000E-01 0.  1.
</event>
<event>
 5   0  0.2306700E+09  0.9118800E+02  0.7818608E-02  0.1180000E+00
       11   -1    0    0    0    0  0.00000000000E+00  0.00000000000E+00  0.39999999673E+01  0.40000000000E+01  0.51109989000E-03 0. -1.
     -623   -1    0    0    0    0  0.00000000000E+00  0.00000000000E+00  0.12525980253E-10  0.17130000000E+03  0.17130000000E+03 0.  1.
       11    1    1    2    0    0  0.13980523828E-02  0.28059636331E-02  0.15463588587E+00  0.15466850489E+00  0.51109989000E-03 0. -1.
     -623    1    1    2    0    0 -0.15457518204E-03  0.42389058747E-04  0.63098824680E-04  0.17130000000E+03  0.17130000000E+03 0.  1.
      622    1    1    2    0    0 -0.12434772008E-02 -0.28483526918E-02  0.38453009825E+01  0.38453314949E+01  0.15000000000E-01 0. -1.
</event>
<event>
 5   0  0.2306700E+09  0.9118800E+02  0.7818608E-02  0.1180000E+00
       11   -1    0    0    0    0  0.00000000000E+00  0.00000000000E+00  0.39999999673E+01  0.40000000000E+01  0.51109989000E-03 0. -1.
     -623   -1    0    0    0    0  0.00000000000E+00  0.00000000000E+00  0.12525980253E-10  0.17130000000E+03  0.17130000000E+03 0. -1.
       11    1    1    2    0    0 -0.12935311770E-02 -0.34703165248E-03  0.12840371433E-02  0.19244813214E-02  0.51109989000E-03 0. -1.
     -623    1    1    2    0    0 -0.65601354506E-04  0.23772946115E-03  0.66878417022E-03  0.17130000000E+03  0.17130000000E+03 0. -1.
      622    1    1    2    0    0  0.13591325315E-02  0.10930219135E-03  0.39980471456E+01  0.39980755168E+01  0.15000000000E-01 0. -1.
</event>
<event>
 5   0  0.2306700E+09  0.9118800E+02  0.7818608E-02  0.1180000E+00
       11   -1    0    0    0    0  0.00000000000E+00  0.00000000000E+00  0.39999999673E+01  0.40000000000E+01  0.51109989000E-03 0.  1.
     -623   -1    0    0    0    0  0.00000000000E+00  0.00000000000E+00  0.12525980253E-10  0.17130000000E+03  0.17130000000E+03 0. -1.
       11    1    1    2    0    0  0.97638265938E-02 -0.99687019239E-02  0.81172577496E+00  0.81184586116E+00  0.51109989000E-03 0.  1.
     -623    1    1    2    0    0 -0.69037432844E-02  0.11061171710E-01  0.15730702732E-03  0.17130000050E+03  0.17130000000E+03 0. -1.
      622    1    1    2    0    0 -0.28600833088E-02 -0.10924697872E-02  0.31881168857E+01  0.31881536429E+01  0.15000000000E-01 0.  1.
</event>
<event>
 5   0  0.2306700E+09  0.9118800E+02  0.7818608E-02  0.1180000E+00
       11   -1    0    0    0    0  0.00000000000E+00  0.00000000000E+00  0.39999999673E+01  0.40000000000E+01  0.51109989000E-03 0.  1.
     -623   -1    0    0    0    0  0.00000000000E+00  0.00000000000E+00  0.12525980253E-10  0.17130000000E+03  0.17130000000E+03 0. -1.
       11    1    1    2    0    0 -0.61340549208E-02  0.66672167190E-02  0.22307450419E+00  0.22325898425E+00  0.51109989000E-03 0.  1.
     -623    1    1    2    0    0  0.95923438903E-02 -0.11618601659E-01  0.21972693665E-03  0.17130000066E+03  0.17130000000E+03 0. -1.
      622    1    1    2    0    0 -0.34582889696E-02  0.49513849403E-02  0.37767057362E+01  0.37767403530E+01  0.15000000000E-01 0.  1.
</event>
<event>
 5   0  0.2306700E+09  0.9118800E+02  0.7818608E-02  0.1180000E+00
       11   -1    0    0    0    0  0.00000000000E+00  0.00000000000E+00  0.39999999673E+01  0.40000000000E+01  0.51109989000E-03 0. -1.
     -623   -1    0    0    0    0  0.00000000000E+00  0.00000000000E+00  0.12525980253E-10  0.17130000000E+03  0.17130000000E+03 0.  1.
       11    1    1    2    0    0  0.38988375547E-02 -0.23191021258E-02  0.43619330508E+00  0.43621719337E+00  0.51109989000E-03 0. -1.
     -623    1    1    2    0    0 -0.26446996353E-01 -0.46228265960E-02  0.13562154413E-03  0.17130000210E+03  0.17130000000E+03 0.  1.
      622    1    1    2    0    0  0.22548158825E-01  0.69419287265E-02  0.35636710447E+01  0.35637807066E+01  0.15000000000E-01 0. -1.
</event>
<event>
 5   0  0.2306700E+09  0.9118800E+02  0.7818608E-02  0.1180000E+00
       11   -1    0    0    0    0  0.00000000000E+00  0.00000000000E+00  0.39999999673E+01  0.40000000000E+01  0.51109989000E-03 0. -1.
     -623   -1    0    0    0    0  0.00000000000E+00  0.00000000000E+00  0.12525980253E-10  0.17130000000E+03  0.17130000000E+03 0.  1.
       11    1    1    2    0    0 -0.89026965210E-02  0.28940084595E-02  0.41708791101E+00  0.41719326459E+00  0.51109989000E-03 0. -1.
     -623    1    1    2    0    0  0.28696988280E-02  0.13058958484E-01  0.17783939661E-03  0.17130000052E+03  0.17130000000E+03 0.  1.
      622    1    1    2    0    0  0.60329976931E-02 -0.15952966944E-01  0.35827342170E+01  0.35828062135E+01  0.15000000000E-01 0. -1.
</event>
<event>
 5   0  0.2306700E+09  0.9118800E+02  0.7818608E-02  0.1180000E+00
       11   -1    0    0    0    0  0.00000000000E+00  0.00000000000E+00  0.39999999673E+01  0.40000000000E+01  0.51109989000E-03 0.  1.
     -623   -1    0    0    0    0  0.00000000000E+00  0.00000000000E+00  0.12525980253E-10  0.17130000000E+03  0.17130000000E+03 0.  1.
       11    1    1    2    0    0  0.84575032790E-03  0.55468577245E-03  0.55346666672E-01  0.55358266791E-01  0.51109989000E-03 0.  1.
     -623    1    1    2    0    0 -0.72662044642E-03 -0.18245647566E-03  0.40108286975E-04  0.17130000000E+03  0.17130000000E+03 0.  1.
      622    1    1    2    0    0 -0.11912988148E-03 -0.37222929679E-03  0.39446131924E+01  0.39446417316E+01  0.15000000000E-01 0.  1.
</event>
<event>
 5   0  0.2306700E+09  0.9118800E+02  0.7818608E-02  0.1180000E+00
       11   -1    0    0    0    0  0.00000000000E+00  0.00000000000E+00  0.39999999673E+01  0.40000000000E+01  0.51109989000E-03 0. -1.
     -623   -1    0    0    0    0  0.00000000000E+00  0.00000000000E+00  0.12525980253E-10  0.17130000000E+03  0.17130000000E+03 0.  1.
       11    1    1    2    0    0 -0.42960152972E-02 -0.25712435824E-02  0.49653440613E+00  0.49655991052E+00  0.51109989000E-03 0. -1.
     -623    1    1    2    0    0 -0.26841912001E-03  0.28616141943E-02  0.60592747284E-04  0.17130000002E+03  0.17130000000E+03 0.  1.
      622    1    1    2    0    0  0.45644344172E-02 -0.29037061195E-03  0.35034049685E+01  0.35034400654E+01  0.15000000000E-01 0. -1.
</event>
<event>
 5   0  0.2306700E+09  0.9118800E+02  0.7818608E-02  0.1180000E+00
       11   -1    0    0    0    0  0.00000000000E+00  0.00000000000E+00  0.39999999673E+01  0.40000000000E+01  0.51109989000E-03 0. -1.
     -623   -1    0    0    0    0  0.00000000000E+00  0.00000000000E+00  0.12525980253E-10  0.17130000000E+03  0.17130000000E+03 0. -1.
       11    1    1    2    0    0  0.66795383672E-03  0.29731461441E-02  0.30281057695E-01  0.30438289022E-01  0.51109989000E-03 0. -1.
     -623    1    1    2    0    0 -0.48285167008E-02 -0.57310145657E-02  0.18884189415E-03  0.17130000016E+03  0.17130000000E+03 0. -1.
      622    1    1    2    0    0  0.41605628636E-02  0.27578684210E-02  0.39695300674E+01  0.39695615466E+01  0.15000000000E-01 0. -1.
</event>
<event>
 5   0  0.2306700E+09  0.9118800E+02  0.7818608E-02  0.1180000E+00
       11   -1    0    0    0    0  0.00000000000E+00  0.00000000000E+00  0.39999999673E+01  0.40000000000E+01  0.51109989000E-03 0.  1.
     -623   -1    0    0    0    0  0.00000000000E+00  0.00000000000E+00  0.12525980253E-10  0.17130000000E+03  0.17130000000E+03 0. -1.
       11    1    1    2    0    0 -0.11778085875E-02  0.12201961643E-02  0.11804354303E+00  0.11805683117E+00  0.51109989000E-03 0.  1.
     -623    1    1    2    0    0 -0.13862502220E-03  0.24623002985E-03  0.42736369971E-04  0.17130000000E+03  0.17130000000E+03 0. -1.
      622    1    1    2    0    0  0.13164336095E-02 -0.14664261939E-02  0.38819136833E+01  0.38819431639E+01  0.15000000000E-01 0.  0.
</event>
<event>
 5   0  0.2306700E+09  0.9118800E+02  0.7818608E-02  0.1180000E+00
       11   -1    0    0    0    0  0.00000000000E+00  0.00000000000E+00  0.39999999673E+01  0.40000000000E+01  0.51109989000E-03 0.  1.
     -623   -1    0    0    0    0  0.00000000000E+00  0.00000000000E+00  0.12525980253E-10  0.17130000000E+03  0.17130000000E+03 0. -1.
       11    1    1    2    0    0 -0.51248872119E-03 -0.12139409018E-04  0.19178309858E-02  0.20499002030E-02  0.51109989000E-03 0.  1.
     -623    1    1    2    0    0  0.49607723452E-03  0.19095110819E-03  0.16018102903E-03  0.17130000000E+03  0.17130000000E+03 0. -1.
      622    1    1    2    0    0  0.16411486862E-04 -0.17881169910E-03  0.39979219538E+01  0.39979500973E+01  0.15000000000E-01 0.  1.
</event>
<event>
 5   0  0.2306700E+09  0.9118800E+02  0.7818608E-02  0.1180000E+00
       11   -1    0    0    0    0  0.00000000000E+00  0.00000000000E+00  0.39999999673E+01  0.40000000000E+01  0.51109989000E-03 0.  1.
     -623   -1    0    0    0    0  0.00000000000E+00  0.00000000000E+00  0.12525980253E-10  0.17130000000E+03  0.17130000000E+03 0. -1.
       11    1    1    2    0    0 -0.69959503551E-06  0.10312232337E-04  0.31366605654E-01  0.31370771091E-01  0.51109989000E-03 0.  1.
     -623    1    1    2    0    0  0.15593917515E-03 -0.53002564486E-03  0.32518177339E-04  0.17130000000E+03  0.17130000000E+03 0. -1.
      622    1    1    2    0    0 -0.15523958011E-03  0.51971341252E-03  0.39686008435E+01  0.39686292280E+01  0.15000000000E-01 0.  1.
</event>
<event>
 5   0  0.2306700E+09  0.9118800E+02  0.7818608E-02  0.1180000E+00
       11   -1    0    0    0    0  0.00000000000E+00  0.00000000000E+00  0.39999999673E+01  0.40000000000E+01  0.51109989000E-03 0. -1.
     -623   -1    0    0    0    0  0.00000000000E+00  0.00000000000E+00  0.12525980253E-10  0.17130000000E+03  0.17130000000E+03 0. -1.
       11    1    1    2    0    0  0.34977522970E-03 -0.83072619640E-03  0.23303992223E+00  0.23304222584E+00  0.51109989000E-03 0. -1.
     -623    1    1    2    0    0 -0.27479533676E-03  0.40664139044E-03  0.32161361579E-04  0.17130000000E+03  0.17130000000E+03 0. -1.
      622    1    1    2    0    0 -0.74979892126E-04  0.42408480476E-03  0.37669278956E+01  0.37669577853E+01  0.15000000000E-01 0. -1.
</event>
<event>
 5   0  0.2306700E+09  0.9118800E+02  0.7818608E-02  0.1180000E+00
       11   -1    0    0    0    0  0.00000000000E+00  0.00000000000E+00  0.39999999673E+01  0.40000000000E+01  0.51109989000E-03 0. -1.
     -623   -1    0    0    0    0  0.00000000000E+00  0.00000000000E+00  0.12525980253E-10  0.17130000000E+03  0.17130000000E+03 0. -1.
       11    1    1    2    0    0 -0.39525265239E-02  0.10486043681E-02  0.48118403659E-01  0.48294554878E-01  0.51109989000E-03 0. -1.
     -623    1    1    2    0    0 -0.13712090119E-03  0.23840040009E-03  0.20691354556E-03  0.17130000000E+03  0.17130000000E+03 0. -1.
      622    1    1    2    0    0  0.40896474252E-02 -0.12870047683E-02  0.39516746513E+01  0.39517054459E+01  0.15000000000E-01 0. -1.
</event>
<event>
 5   0  0.2306700E+09  0.9118800E+02  0.7818608E-02  0.1180000E+00
       11   -1    0    0    0    0  0.00000000000E+00  0.00000000000E+00  0.39999999673E+01  0.40000000000E+01  0.51109989000E-03 0. -1.
     -623   -1    0    0    0    0  0.00000000000E+00  0.00000000000E+00  0.12525980253E-10  0.17130000000E+03  0.17130000000E+03 0. -1.
       11    1    1    2    0    0  0.20929303426E-03 -0.30733333875E-03  0.63697751428E-03  0.89734096449E-03  0.51109989000E-03 0. -1.
     -623    1    1    2    0    0 -0.10906070160E-02  0.64906142345E-03  0.28857887686E-03  0.17130000000E+03  0.17130000000E+03 0. -1.
      622    1    1    2    0    0  0.88131398157E-03 -0.34172808460E-03  0.39990744104E+01  0.39991026535E+01  0.15000000000E-01 0. -1.
</event>
<event>
 5   0  0.2306700E+09  0.9118800E+02  0.7818608E-02  0.1180000E+00
       11   -1    0    0    0    0  0.00000000000E+00  0.00000000000E+00  0.39999999673E+01  0.40000000000E+01  0.51109989000E-03 0. -1.
     -623   -1    0    0    0    0  0.00000000000E+00  0.00000000000E+00  0.12525980253E-10  0.17130000000E+03  0.17130000000E+03 0.  1.
       11    1    1    2    0    0 -0.16990053601E-02  0.43357184492E-03  0.35382661090E-01  0.35429769018E-01  0.51109989000E-03 0. -1.
     -623    1    1    2    0    0 -0.23565182225E-05  0.11134551945E-03  0.75854298037E-04  0.17130000000E+03  0.17130000000E+03 0.  1.
      622    1    1    2    0    0  0.17013618783E-02 -0.54491736457E-03  0.39645414590E+01  0.39645702379E+01  0.15000000000E-01 0. -1.
</event>
<event>
 5   0  0.2306700E+09  0.9118800E+02  0.7818608E-02  0.1180000E+00
       11   -1    0    0    0    0  0.00000000000E+00  0.00000000000E+00  0.39999999673E+01  0.40000000000E+01  0.51109989000E-03 0. -1.
     -623   -1    0    0    0    0  0.00000000000E+00  0.00000000000E+00  0.12525980253E-10  0.17130000000E+03  0.17130000000E+03 0. -1.
       11    1    1    2    0    0 -0.44375737555E-02 -0.13050831643E-02  0.34832181596E+00  0.34835290153E+00  0.51109989000E-03 0. -1.
     -623    1    1    2    0    0 -0.24714569542E-05  0.74262550010E-04  0.64767881259E-04  0.17130000000E+03  0.17130000000E+03 0. -1.
      622    1    1    2    0    0  0.44400452125E-02  0.12308206143E-02  0.36516133835E+01  0.36516470984E+01  0.15000000000E-01 0. -1.
</event>
<event>
 5   0  0.2306700E+09  0.9118800E+02  0.7818608E-02  0.1180000E+00
       11   -1    0    0    0    0  0.00000000000E+00  0.00000000000E+00  0.39999999673E+01  0.40000000000E+01  0.51109989000E-03 0. -1.
     -623   -1    0    0    0    0  0.00000000000E+00  0.00000000000E+00  0.12525980253E-10  0.17130000000E+03  0.17130000000E+03 0.  1.
       11    1    1    2    0    0  0.84876945410E-03 -0.19299100441E-03  0.44503956388E-01  0.44515401968E-01  0.51109989000E-03 0. -1.
     -623    1    1    2    0    0  0.50526996315E-03 -0.37140645070E-03  0.40127741364E-04  0.17130000000E+03  0.17130000000E+03 0.  1.
      622    1    1    2    0    0 -0.13540394186E-02  0.56439745607E-03  0.39554558936E+01  0.39554846072E+01  0.15000000000E-01 0. -1.
</event>
<event>
 5   0  0.2306700E+09  0.9118800E+02  0.7818608E-02  0.1180000E+00
       11   -1    0    0    0    0  0.00000000000E+00  0.00000000000E+00  0.39999999673E+01  0.40000000000E+01  0.51109989000E-03 0.  1.
     -623   -1    0    0    0    0  0.00000000000E+00  0.00000000000E+00  0.12525980253E-10  0.17130000000E+03  0.17130000000E+03 0. -1.
       11    1    1    2    0    0 -0.38112160760E-03 -0.48663912266E-03  0.18795984293E-01  0.18813088984E-01  0.51109989000E-03 0.  1.
     -623    1    1    2    0    0  0.13616531781E-03 -0.27030894933E-04  0.45370792240E-04  0.17130000000E+03  0.17130000000E+03 0. -1.
      622    1    1    2    0    0  0.24495628979E-03  0.51367001760E-03  0.39811586123E+01  0.39811869110E+01  0.15000000000E-01 0.  1.
</event>
<event>
 5   0  0.2306700E+09  0.9118800E+02  0.7818608E-02  0.1180000E+00
       11   -1    0    0    0    0  0.00000000000E+00  0.00000000000E+00  0.39999999673E+01  0.40000000000E+01  0.51109989000E-03 0.  1.
     -623   -1    0    0    0    0  0.00000000000E+00  0.00000000000E+00  0.12525980253E-10  0.17130000000E+03  0.17130000000E+03 0.  1.
       11    1    1    2    0    0 -0.20782438905E-03 -0.37321862756E-02  0.59629805085E+00  0.59630998573E+00  0.51109989000E-03 0.  1.
     -623    1    1    2    0    0  0.22308728323E-02  0.82448543058E-03  0.46814507346E-04  0.17130000002E+03  0.17130000000E+03 0.  1.
      622    1    1    2    0    0 -0.20230484433E-02  0.29077008450E-02  0.34036551020E+01  0.34036899978E+01  0.15000000000E-01 0.  1.
</event>
<event>
 5   0  0.2306700E+09  0.9118800E+02  0.7818608E-02  0.1180000E+00
       11   -1    0    0    0    0  0.00000000000E+00  0.00000000000E+00  0.39999999673E+01  0.40000000000E+01  0.51109989000E-03 0. -1.
     -623   -1    0    0    0    0  0.00000000000E+00  0.00000000000E+00  0.12525980253E-10  0.17130000000E+03  0.17130000000E+03 0. -1.
       11    1    1    2    0    0  0.21089760167E-02 -0.30028207505E-02  0.86238046252E-02  0.93859437096E-02  0.51109989000E-03 0. -1.
     -623    1    1    2    0    0 -0.28699090456E-02 -0.15607944169E-02  0.79301269475E-03  0.17130000003E+03  0.17130000000E+03 0. -1.
      622    1    1    2    0    0  0.76093302886E-03  0.45636151675E-02  0.39905831500E+01  0.39906140233E+01  0.15000000000E-01 0. -1.
</event>
<event>
 5   0  0.2306700E+09  0.9118800E+02  0.7818608E-02  0.1180000E+00
       11   -1    0    0    0    0  0.00000000000E+00  0.00000000000E+00  0.39999999673E+01  0.40000000000E+01  0.51109989000E-03 0. -1.
     -623   -1    0    0    0    0  0.00000000000E+00  0.00000000000E+00  0.12525980253E-10  0.17130000000E+03  0.17130000000E+03 0. -1.
       11    1    1    2    0    0  0.42099765113E-02  0.32124902359E-02  0.10655156876E+01  0.10655289699E+01  0.51109989000E-03 0. -1.
     -623    1    1    2    0    0  0.97743586531E-03 -0.36823427370E-03  0.57554045274E-04  0.17130000000E+03  0.17130000000E+03 0. -1.
      622    1    1    2    0    0 -0.51874123755E-02 -0.28442559627E-02  0.29344267211E+01  0.29344710223E+01  0.15000000000E-01 0. -1.
</event>
<event>
 5   0  0.2306700E+09  0.9118800E+02  0.7818608E-02  0.1180000E+00
       11   -1    0    0    0    0  0.00000000000E+00  0.00000000000E+00  0.39999999673E+01  0.40000000000E+01  0.51109989000E-03 0. -1.
     -623   -1    0    0    0    0  0.00000000000E+00  0.00000000000E+00  0.12525980253E-10  0.17130000000E+03  0.17130000000E+03 0. -1.
       11    1    1    2    0    0 -0.39747275058E-03  0.44350097746E-03  0.87443381964E-01  0.87446903605E-01  0.51109989000E-03 0. -1.
     -623    1    1    2    0    0  0.22612529163E-04  0.69149490416E-04  0.32294272000E-04  0.17130000000E+03  0.17130000000E+03 0. -1.
      622    1    1    2    0    0  0.37486022143E-03 -0.51265046785E-03  0.39125242898E+01  0.39125530950E+01  0.15000000000E-01 0. -1.
</event>
<event>
 5   0  0.2306700E+09  0.9118800E+02  0.7818608E-02  0.1180000E+00
       11   -1    0    0    0    0  0.00000000000E+00  0.00000000000E+00  0.39999999673E+01  0.40000000000E+01  0.51109989000E-03 0.  1.
     -623   -1    0    0    0    0  0.00000000000E+00  0.00000000000E+00  0.12525980253E-10  0.17130000000E+03  0.17130000000E+03 0. -1.
       11    1    1    2    0    0  0.16792076280E-02 -0.10689254510E-02  0.71447689098E-01  0.71477240012E-01  0.51109989000E-03 0.  1.
     -623    1    1    2    0    0  0.10855800007E-03  0.59321894656E-04  0.58691668331E-04  0.17130000000E+03  0.17130000000E+03 0. -1.
      622    1    1    2    0    0 -0.17877656280E-02  0.10096035563E-02  0.39284935866E+01  0.39285227599E+01  0.15000000000E-01 0.  1.
</event>
<event>
 5   0  0.2306700E+09  0.9118800E+02  0.7818608E-02  0.1180000E+00
       11   -1    0    0    0    0  0.00000000000E+00  0.00000000000E+00  0.39999999673E+01  0.40000000000E+01  0.51109989000E-03 0. -1.
     -623   -1    0    0    0    0  0.00000000000E+00  0.00000000000E+00  0.12525980253E-10  0.17130000000E+03  0.17130000000E+03 0.  1.
       11    1    1    2    0    0 -0.19062099812E-04  0.12570805300E-03  0.16994666906E-01  0.17002825954E-01  0.51109989000E-03 0. -1.
     -623    1    1    2    0    0  0.51680700656E-03  0.14001925843E-03  0.36412374894E-04  0.17130000000E+03  0.17130000000E+03 0.  1.
      622    1    1    2    0    0 -0.49774490674E-03 -0.26572731143E-03  0.39829688881E+01  0.39829971732E+01  0.15000000000E-01 0. -1.
</event>
<event>
 5   0  0.2306700E+09  0.9118800E+02  0.7818608E-02  0.1180000E+00
       11   -1    0    0    0    0  0.00000000000E+00  0.00000000000E+00  0.39999999673E+01  0.40000000000E+01  0.51109989000E-03 0. -1.
     -623   -1    0    0    0    0  0.00000000000E+00  0.00000000000E+00  0.12525980253E-10  0.17130000000E+03  0.17130000000E+03 0. -1.
       11    1    1    2    0    0  0.50746312853E-04  0.11074683775E-02  0.31260712069E-01  0.31284539369E-01  0.51109989000E-03 0. -1.
     -623    1    1    2    0    0  0.15586874280E-03 -0.15005471449E-02  0.52172960628E-04  0.17130000001E+03  0.17130000000E+03 0. -1.
      622    1    1    2    0    0 -0.20661505555E-03  0.39307876648E-03  0.39686870798E+01  0.39687154514E+01  0.15000000000E-01 0. -1.
</event>
<event>
 5   0  0.2306700E+09  0.9118800E+02  0.7818608E-02  0.1180000E+00
       11   -1    0    0    0    0  0.00000000000E+00  0.00000000000E+00  0.39999999673E+01  0.40000000000E+01  0.51109989000E-03 0. -1.
     -623   -1    0    0    0    0  0.00000000000E+00  0.00000000000E+00  0.12525980253E-10  0.17130000000E+03  0.17130000000E+03 0.  1.
       11    1    1    2    0    0  0.87094306449E-03 -0.10810550759E-03  0.42555294977E-02  0.43750409170E-02  0.51109989000E-03 0.  1.
     -623    1    1    2    0    0  0.49141909991E-03  0.31662208046E-03  0.14787343583E-03  0.17130000000E+03  0.17130000000E+03 0.  1.
      622    1    1    2    0    0 -0.13623621644E-02 -0.20851657288E-03  0.39955965646E+01  0.39956249582E+01  0.15000000000E-01 0. -1.
</event>
<event>
 5   0  0.2306700E+09  0.9118800E+02  0.7818608E-02  0.1180000E+00
       11   -1    0    0    0    0  0.00000000000E+00  0.00000000000E+00  0.39999999673E+01  0.40000000000E+01  0.51109989000E-03 0. -1.
     -623   -1    0    0    0    0  0.00000000000E+00  0.00000000000E+00  0.12525980253E-10  0.17130000000E+03  0.17130000000E+03 0.  1.
       11    1    1    2    0    0 -0.10784602173E-01 -0.89106659085E-03  0.46884487344E+00  0.46897001846E+00  0.51109989000E-03 0. -1.
     -623    1    1    2    0    0 -0.10880770709E-03  0.28996229231E-03  0.17382800831E-03  0.17130000000E+03  0.17130000000E+03 0.  1.
      622    1    1    2    0    0  0.10893409880E-01  0.60110429854E-03  0.35309812659E+01  0.35310299812E+01  0.15000000000E-01 0. -1.
</event>
<event>
 5   0  0.2306700E+09  0.9118800E+02  0.7818608E-02  0.1180000E+00
       11   -1    0    0    0    0  0.00000000000E+00  0.00000000000E+00  0.39999999673E+01  0.40000000000E+01  0.51109989000E-03 0.  1.
     -623   -1    0    0    0    0  0.00000000000E+00  0.00000000000E+00  0.12525980253E-10  0.17130000000E+03  0.17130000000E+03 0. -1.
       11    1    1    2    0    0 -0.16761727488E-01  0.12991481215E-01  0.44858560183E+00  0.44908689302E+00  0.51109989000E-03 0.  1.
     -623    1    1    2    0    0  0.63724180250E-02  0.30072666004E-02  0.58432745286E-03  0.17130000015E+03  0.17130000000E+03 0. -1.
      622    1    1    2    0    0  0.10389309461E-01 -0.15998747816E-01  0.35508300390E+01  0.35509129620E+01  0.15000000000E-01 0.  1.
</event>
<event>
 5   0  0.2306700E+09  0.9118800E+02  0.7818608E-02  0.1180000E+00
       11   -1    0    0    0    0  0.00000000000E+00  0.00000000000E+00  0.39999999673E+01  0.40000000000E+01  0.51109989000E-03 0. -1.
     -623   -1    0    0    0    0  0.00000000000E+00  0.00000000000E+00  0.12525980253E-10  0.17130000000E+03  0.17130000000E+03 0. -1.
       11    1    1    2    0    0  0.35376880373E-03  0.70591744319E-03  0.18979887385E-01  0.19003179171E-01  0.51109989000E-03 0. -1.
     -623    1    1    2    0    0  0.17262950560E-03 -0.45581824552E-03  0.51561860629E-04  0.17130000000E+03  0.17130000000E+03 0. -1.
      622    1    1    2    0    0 -0.52639830933E-03 -0.25009919767E-03  0.39809685181E+01  0.39809968201E+01  0.15000000000E-01 0. -1.
</event>
<event>
 5   0  0.2306700E+09  0.9118800E+02  0.7818608E-02  0.1180000E+00
       11   -1    0    0    0    0  0.00000000000E+00  0.00000000000E+00  0.39999999673E+01  0.40000000000E+01  0.51109989000E-03 0. -1.
     -623   -1    0    0    0    0  0.00000000000E+00  0.00000000000E+00  0.12525980253E-10  0.17130000000E+03  0.17130000000E+03 0. -1.
       11    1    1    2    0    0 -0.65935835001E-02  0.19954011813E-02  0.18831658484E+00  0.18844323898E+00  0.51109989000E-03 0. -1.
     -623    1    1    2    0    0 -0.20124860374E-03 -0.48708933516E-03  0.16249303975E-03  0.17130000000E+03  0.17130000000E+03 0. -1.
      622    1    1    2    0    0  0.67948321038E-02 -0.15083118463E-02  0.38115208883E+01  0.38115567590E+01  0.15000000000E-01 0. -1.
</event>
<event>
 5   0  0.2306700E+09  0.9118800E+02  0.7818608E-02  0.1180000E+00
       11   -1    0    0    0    0  0.00000000000E+00  0.00000000000E+00  0.39999999673E+01  0.40000000000E+01  0.51109989000E-03 0.  1.
     -623   -1    0    0    0    0  0.00000000000E+00  0.00000000000E+00  0.12525980253E-10  0.17130000000E+03  0.17130000000E+03 0.  1.
       11    1    1    2    0    0 -0.73995456834E-02 -0.48225569540E-02  0.41973216435E-01  0.42895482897E-01  0.51109989000E-03 0.  1.
     -623    1    1    2    0    0  0.35667451150E-02  0.46609047314E-03  0.95495853057E-03  0.17130000004E+03  0.17130000000E+03 0.  1.
      622    1    1    2    0    0  0.38328005683E-02  0.43564664809E-02  0.39570717924E+01  0.39571044767E+01  0.15000000000E-01 0.  1.
</event>
<event>
 5   0  0.2306700E+09  0.9118800E+02  0.7818608E-02  0.1180000E+00
       11   -1    0    0    0    0  0.00000000000E+00  0.00000000000E+00  0.39999999673E+01  0.40000000000E+01  0.51109989000E-03 0.  1.
     -623   -1    0    0    0    0  0.00000000000E+00  0.00000000000E+00  0.12525980253E-10  0.17130000000E+03  0.17130000000E+03 0.  1.
       11    1    1    2    0    0  0.16049755308E-02  0.75787650136E-03  0.11859647986E+00  0.11861086198E+00  0.51109989000E-03 0. -1.
     -623    1    1    2    0    0  0.14218492082E-02  0.23822288039E-02  0.45806957182E-04  0.17130000002E+03  0.17130000000E+03 0.  1.
      622    1    1    2    0    0 -0.30268247422E-02 -0.31401053105E-02  0.38813576893E+01  0.38813891243E+01  0.15000000000E-01 0.  1.
</event>
<event>
 5   0  0.2306700E+09  0.9118800E+02  0.7818608E-02  0.1180000E+00
       11   -1    0    0    0    0  0.00000000000E+00  0.00000000000E+00  0.39999999673E+01  0.40000000000E+01  0.51109989000E-03 0.  1.
     -623   -1    0    0    0    0  0.00000000000E+00  0.00000000000E+00  0.12525980253E-10  0.17130000000E+03  0.17130000000E+03 0.  1.
       11    1    1    2    0    0 -0.36876318771E-02 -0.15794817420E-02  0.50356985500E+00  0.50358609341E+00  0.51109989000E-03 0.  1.
     -623    1    1    2    0    0  0.26924648208E-02  0.18244883082E-03  0.48823738809E-04  0.17130000002E+03  0.17130000000E+03 0.  1.
      622    1    1    2    0    0  0.99516705464E-03  0.13970329111E-02  0.34963812911E+01  0.34964138878E+01  0.15000000000E-01 0.  1.
</event>
<event>
 5   0  0.2306700E+09  0.9118800E+02  0.7818608E-02  0.1180000E+00
       11   -1    0    0    0    0  0.00000000000E+00  0.00000000000E+00  0.39999999673E+01  0.40000000000E+01  0.51109989000E-03 0.  1.
     -623   -1    0    0    0    0  0.00000000000E+00  0.00000000000E+00  0.12525980253E-10  0.17130000000E+03  0.17130000000E+03 0.  1.
       11    1    1    2    0    0  0.13953004049E-02 -0.21638736408E-02  0.67585708504E-02  0.72504286349E-02  0.51109989000E-03 0.  1.
     -623    1    1    2    0    0 -0.38099826340E-02 -0.38124912919E-02  0.52528984234E-03  0.17130000009E+03  0.17130000000E+03 0.  1.
      622    1    1    2    0    0  0.24146822292E-02  0.59763649329E-02  0.39927161068E+01  0.39927494859E+01  0.15000000000E-01 0.  1.
</event>
<event>
 5   0  0.2306700E+09  0.9118800E+02  0.7818608E-02  0.1180000E+00
       11   -1    0    0    0    0  0.00000000000E+00  0.00000000000E+00  0.39999999673E+01  0.40000000000E+01  0.51109989000E-03 0.  1.
     -623   -1    0    0    0    0  0.00000000000E+00  0.00000000000E+00  0.12525980253E-10  0.17130000000E+03  0.17130000000E+03 0.  1.
       11    1    1    2    0    0 -0.64247296978E-03 -0.19420188298E-03  0.83164465444E-01  0.83168744258E-01  0.51109989000E-03 0.  1.
     -623    1    1    2    0    0 -0.68391954025E-03  0.55903927685E-03  0.33212335463E-04  0.17130000000E+03  0.17130000000E+03 0.  1.
      622    1    1    2    0    0  0.13263925106E-02 -0.36483739431E-03  0.39168022927E+01  0.39168312566E+01  0.15000000000E-01 0.  1.
</event>
<event>
 5   0  0.2306700E+09  0.9118800E+02  0.7818608E-02  0.1180000E+00
       11   -1    0    0    0    0  0.00000000000E+00  0.00000000000E+00  0.39999999673E+01  0.40000000000E+01  0.51109989000E-03 0.  1.
     -623   -1    0    0    0    0  0.00000000000E+00  0.00000000000E+00  0.12525980253E-10  0.17130000000E+03  0.17130000000E+03 0.  1.
       11    1    1    2    0    0 -0.71579592485E-02 -0.11473260232E-02  0.38855242588E+00  0.38862038240E+00  0.51109989000E-03 0.  1.
     -623    1    1    2    0    0 -0.18501583140E-01 -0.40285593257E-02  0.19499133397E-03  0.17130000105E+03  0.17130000000E+03 0.  1.
      622    1    1    2    0    0  0.25659542382E-01  0.51758853475E-02  0.36112525489E+01  0.36113785697E+01  0.15000000000E-01 0.  1.
</event>
<event>
 5   0  0.2306700E+09  0.9118800E+02  0.7818608E-02  0.1180000E+00
       11   -1    0    0    0    0  0.00000000000E+00  0.00000000000E+00  0.39999999673E+01  0.40000000000E+01  0.51109989000E-03 0.  1.
     -623   -1    0    0    0    0  0.00000000000E+00  0.00000000000E+00  0.12525980253E-10  0.17130000000E+03  0.17130000000E+03 0. -1.
       11    1    1    2    0    0  0.50275819951E-03  0.34614981029E-03  0.23801368680E+00  0.23801501825E+00  0.51109989000E-03 0.  1.
     -623    1    1    2    0    0  0.37662857562E-04 -0.10554598103E-03  0.31249905315E-04  0.17130000000E+03  0.17130000000E+03 0. -1.
      622    1    1    2    0    0 -0.54042105706E-03 -0.24060382930E-03  0.37619550291E+01  0.37619849802E+01  0.15000000000E-01 0.  1.
</event>
<event>
 5   0  0.2306700E+09  0.9118800E+02  0.7818608E-02  0.1180000E+00
       11   -1    0    0    0    0  0.00000000000E+00  0.00000000000E+00  0.39999999673E+01  0.40000000000E+01  0.51109989000E-03 0. -1.
     -623   -1    0    0    0    0  0.00000000000E+00  0.00000000000E+00  0.12525980253E-10  0.17130000000E+03  0.17130000000E+03 0. -1.
       11    1    1    2    0    0  0.24897485702E-02  0.13912630679E-02  0.26784346517E+00  0.26785913745E+00  0.51109989000E-03 0. -1.
     -623    1    1    2    0    0  0.53754388295E-03 -0.39744426786E-02  0.47952045429E-04  0.17130000005E+03  0.17130000000E+03 0. -1.
      622    1    1    2    0    0 -0.30272924541E-02  0.25831796172E-02  0.37321085568E+01  0.37321408222E+01  0.15000000000E-01 0. -1.
</event>
<event>
 5   0  0.2306700E+09  0.9118800E+02  0.7818608E-02  0.1180000E+00
       11   -1    0    0    0    0  0.00000000000E+00  0.00000000000E+00  0.39999999673E+01  0.40000000000E+01  0.51109989000E-03 0.  1.
     -623   -1    0    0    0    0  0.00000000000E+00  0.00000000000E+00  0.12525980253E-10  0.17130000000E+03  0.17130000000E+03 0.  1.
       11    1    1    2    0    0 -0.57826468110E-03  0.88529734668E-04  0.15065054306E-01  0.15085069171E-01  0.51109989000E-03 0.  1.
     -623    1    1    2    0    0  0.10680226652E-03  0.11589489165E-03  0.48247006031E-04  0.17130000000E+03  0.17130000000E+03 0.  1.
      622    1    1    2    0    0  0.47146241446E-03 -0.20442462646E-03  0.39848866709E+01  0.39849149356E+01  0.15000000000E-01 0.  1.
</event>
<event>
 5   0  0.2306700E+09  0.9118800E+02  0.7818608E-02  0.1180000E+00
       11   -1    0    0    0    0  0.00000000000E+00  0.00000000000E+00  0.39999999673E+01  0.40000000000E+01  0.51109989000E-03 0. -1.
     -623   -1    0    0    0    0  0.00000000000E+00  0.00000000000E+00  0.12525980253E-10  0.17130000000E+03  0.17130000000E+03 0.  1.
       11    1    1    2    0    0  0.15049304627E-03 -0.75099488871E-04  0.55396189104E-02  0.55656885342E-02  0.51109989000E-03 0. -1.
     -623    1    1    2    0    0 -0.40395447347E-04  0.25527922610E-03  0.54207055861E-04  0.17130000000E+03  0.17130000000E+03 0.  1.
      622    1    1    2    0    0 -0.11009759889E-03 -0.18017973745E-03  0.39944061449E+01  0.39944343148E+01  0.15000000000E-01 0. -1.
</event>
<event>
 5   0  0.2306700E+09  0.9118800E+02  0.7818608E-02  0.1180000E+00
       11   -1    0    0    0    0  0.00000000000E+00  0.00000000000E+00  0.39999999673E+01  0.40000000000E+01  0.51109989000E-03 0. -1.
     -623   -1    0    0    0    0  0.00000000000E+00  0.00000000000E+00  0.12525980253E-10  0.17130000000E+03  0.17130000000E+03 0.  1.
       11    1    1    2    0    0  0.19020717292E-02 -0.17085812567E-03  0.52127893286E+00  0.52128268160E+00  0.51109989000E-03 0. -1.
     -623    1    1    2    0    0  0.46946272950E-04 -0.27528840635E-03  0.36630588833E-04  0.17130000000E+03  0.17130000000E+03 0.  1.
      622    1    1    2    0    0 -0.19490180021E-02  0.44614653202E-03  0.34786844039E+01  0.34787173182E+01  0.15000000000E-01 0. -1.
</event>
<event>
 5   0  0.2306700E+09  0.9118800E+02  0.7818608E-02  0.1180000E+00
       11   -1    0    0    0    0  0.00000000000E+00  0.00000000000E+00  0.39999999673E+01  0.40000000000E+01  0.51109989000E-03 0. -1.
     -623   -1    0    0    0    0  0.00000000000E+00  0.00000000000E+00  0.12525980253E-10  0.17130000000E+03  0.17130000000E+03 0.  1.
       11    1    1    2    0    0 -0.24503193736E-03  0.38567006498E-03  0.92896823353E-01  0.92899353027E-01  0.51109989000E-03 0. -1.
     -623    1    1    2    0    0 -0.24454210307E-03  0.28414619077E-03  0.31379372335E-04  0.17130000000E+03  0.17130000000E+03 0.  1.
      622    1    1    2    0    0  0.48957404043E-03 -0.66981625575E-03  0.39070717646E+01  0.39071006466E+01  0.15000000000E-01 0. -1.
</event>
<event>
 5   0  0.2306700E+09  0.9118800E+02  0.7818608E-02  0.1180000E+00
       11   -1    0    0    0    0  0.00000000000E+00  0.00000000000E+00  0.39999999673E+01  0.40000000000E+01  0.51109989000E-03 0. -1.
     -623   -1    0    0    0    0  0.00000000000E+00  0.00000000000E+00  0.12525980253E-10  0.17130000000E+03  0.17130000000E+03 0. -1.
       11    1    1    2    0    0 -0.63025533381E-02  0.36464843677E-02  0.21582570837E+00  0.21594910660E+00  0.51109989000E-03 0. -1.
     -623    1    1    2    0    0 -0.53015742070E-02  0.34812859408E-04  0.17276129894E-03  0.17130000008E+03  0.17130000000E+03 0. -1.
      622    1    1    2    0    0  0.11604127545E-01 -0.36812972271E-02  0.37840014977E+01  0.37840508113E+01  0.15000000000E-01 0. -1.
</event>
<event>
 5   0  0.2306700E+09  0.9118800E+02  0.7818608E-02  0.1180000E+00
       11   -1    0    0    0    0  0.00000000000E+00  0.00000000000E+00  0.39999999673E+01  0.40000000000E+01  0.51109989000E-03 0. -1.
     -623   -1    0    0    0    0  0.00000000000E+00  0.00000000000E+00  0.12525980253E-10  0.17130000000E+03  0.17130000000E+03 0.  1.
       11    1    1    2    0    0 -0.27107860238E-02 -0.20452184740E-02  0.50914669405E-01  0.51030344526E-01  0.51109989000E-03 0. -1.
     -623    1    1    2    0    0  0.36360210181E-03  0.52218398735E-04  0.14533197232E-03  0.17130000000E+03  0.17130000000E+03 0.  1.
      622    1    1    2    0    0  0.23471839220E-02  0.19930000753E-02  0.39489399660E+01  0.39489696550E+01  0.15000000000E-01 0. -1.
</event>
<event>
 5   0  0.2306700E+09  0.9118800E+02  0.7818608E-02  0.1180000E+00
       11   -1    0    0    0    0  0.00000000000E+00  0.00000000000E+00  0.39999999673E+01  0.40000000000E+01  0.51109989000E-03 0.  1.
     -623   -1    0    0    0    0  0.00000000000E+00  0.00000000000E+00  0.12525980253E-10  0.17130000000E+03  0.17130000000E+03 0.  1.
       11    1    1    2    0    0  0.10705302000E-02  0.24774134675E-02  0.15047719790E+00  0.15050226550E+00  0.51109989000E-03 0.  1.
     -623    1    1    2    0    0 -0.16601492237E-02 -0.23412701581E-02  0.54331277053E-04  0.17130000002E+03  0.17130000000E+03 0.  1.
      622    1    1    2    0    0  0.58961902373E-03 -0.13614330945E-03  0.38494684382E+01  0.38494977104E+01  0.15000000000E-01 0.  1.
</event>
<event>
 5   0  0.2306700E+09  0.9118800E+02  0.7818608E-02  0.1180000E+00
       11   -1    0    0    0    0  0.00000000000E+00  0.00000000000E+00  0.39999999673E+01  0.40000000000E+01  0.51109989000E-03 0.  1.
     -623   -1    0    0    0    0  0.00000000000E+00  0.00000000000E+00  0.12525980253E-10  0.17130000000E+03  0.17130000000E+03 0.  1.
       11    1    1    2    0    0  0.56341695332E-03 -0.65656627152E-03  0.27905879339E-02  0.29659942762E-02  0.51109989000E-03 0.  1.
     -623    1    1    2    0    0 -0.15861181158E-03  0.98954948858E-03  0.20355709273E-03  0.17130000000E+03  0.17130000000E+03 0.  1.
      622    1    1    2    0    0 -0.40480514166E-03 -0.33298321757E-03  0.39970058244E+01  0.39970340047E+01  0.15000000000E-01 0.  1.
</event>
<event>
 5   0  0.2306700E+09  0.9118800E+02  0.7818608E-02  0.1180000E+00
       11   -1    0    0    0    0  0.00000000000E+00  0.00000000000E+00  0.39999999673E+01  0.40000000000E+01  0.51109989000E-03 0.  1.
     -623   -1    0    0    0    0  0.00000000000E+00  0.00000000000E+00  0.12525980253E-10  0.17130000000E+03  0.17130000000E+03 0. -1.
       11    1    1    2    0    0  0.89241019080E-03 -0.12932360685E-02  0.57311493038E-01  0.57335305988E-01  0.51109989000E-03 0.  1.
     -623    1    1    2    0    0  0.15084372603E-02  0.72389415812E-03  0.53094694561E-04  0.17130000001E+03  0.17130000000E+03 0. -1.
      622    1    1    2    0    0 -0.24008474538E-02  0.56934190908E-03  0.39426353867E+01  0.39426646929E+01  0.15000000000E-01 0.  1.
</event>
<event>
 5   0  0.2306700E+09  0.9118800E+02  0.7818608E-02  0.1180000E+00
       11   -1    0    0    0    0  0.00000000000E+00  0.00000000000E+00  0.39999999673E+01  0.40000000000E+01  0.51109989000E-03 0. -1.
     -623   -1    0    0    0    0  0.00000000000E+00  0.00000000000E+00  0.12525980253E-10  0.17130000000E+03  0.17130000000E+03 0. -1.
       11    1    1    2    0    0  0.12396346979E-02 -0.12258873115E-03  0.73278583920E-01  0.73290953102E-01  0.51109989000E-03 0. -1.
     -623    1    1    2    0    0 -0.50379717716E-04 -0.45675668549E-04  0.41170307597E-04  0.17130000000E+03  0.17130000000E+03 0. -1.
      622    1    1    2    0    0 -0.11892549802E-02  0.16826439963E-03  0.39266802072E+01  0.39267090410E+01  0.15000000000E-01 0. -1.
</event>
<event>
 5   0  0.2306700E+09  0.9118800E+02  0.7818608E-02  0.1180000E+00
       11   -1    0    0    0    0  0.00000000000E+00  0.00000000000E+00  0.39999999673E+01  0.40000000000E+01  0.51109989000E-03 0. -1.
     -623   -1    0    0    0    0  0.00000000000E+00  0.00000000000E+00  0.12525980253E-10  0.17130000000E+03  0.17130000000E+03 0. -1.
       11    1    1    2    0    0 -0.23163234707E-02 -0.12145074656E-02  0.34357170336E+00  0.34358203818E+00  0.51109989000E-03 0. -1.
     -623    1    1    2    0    0  0.57536310792E-02 -0.29979566157E-02  0.45235223088E-04  0.17130000012E+03  0.17130000000E+03 0. -1.
      622    1    1    2    0    0 -0.34373076163E-02  0.42124640854E-02  0.36563830342E+01  0.36564178444E+01  0.15000000000E-01 0. -1.
</event>
<event>
 5   0  0.2306700E+09  0.9118800E+02  0.7818608E-02  0.1180000E+00
       11   -1    0    0    0    0  0.00000000000E+00  0.00000000000E+00  0.39999999673E+01  0.40000000000E+01  0.51109989000E-03 0.  1.
     -623   -1    0    0    0    0  0.00000000000E+00  0.00000000000E+00  0.12525980253E-10  0.17130000000E+03  0.17130000000E+03 0. -1.
       11    1    1    2    0    0 -0.72792497917E-02 -0.27602463158E-02  0.68314147169E+00  0.68318602005E+00  0.51109989000E-03 0.  1.
     -623    1    1    2    0    0 -0.11598043762E-03 -0.22716833932E-03  0.88023953369E-04  0.17130000000E+03  0.17130000000E+03 0. -1.
      622    1    1    2    0    0  0.73952302294E-02  0.29874146552E-02  0.33167704727E+01  0.33168139807E+01  0.15000000000E-01 0.  1.
</event>
<event>
 5   0  0.2306700E+09  0.9118800E+02  0.7818608E-02  0.1180000E+00
       11   -1    0    0    0    0  0.00000000000E+00  0.00000000000E+00  0.39999999673E+01  0.40000000000E+01  0.51109989000E-03 0.  1.
     -623   -1    0    0    0    0  0.00000000000E+00  0.00000000000E+00  0.12525980253E-10  0.17130000000E+03  0.17130000000E+03 0.  1.
       11    1    1    2    0    0  0.11729142914E-02 -0.47981137935E-03  0.77988167498E-01  0.78000137434E-01  0.51109989000E-03 0.  1.
     -623    1    1    2    0    0  0.16559720365E-03  0.34081448591E-03  0.40853040600E-04  0.17130000000E+03  0.17130000000E+03 0.  1.
      622    1    1    2    0    0 -0.13385114949E-02  0.13899689380E-03  0.39219709425E+01  0.39219998579E+01  0.15000000000E-01 0.  1.
</event>
<event>
 5   0  0.2306700E+09  0.9118800E+02  0.7818608E-02  0.1180000E+00
       11   -1    0    0    0    0  0.00000000000E+00  0.00000000000E+00  0.39999999673E+01  0.40000000000E+01  0.51109989000E-03 0.  1.
     -623   -1    0    0    0    0  0.00000000000E+00  0.00000000000E+00  0.12525980253E-10  0.17130000000E+03  0.17130000000E+03 0. -1.
       11    1    1    2    0    0  0.11107584787E-02 -0.23057970877E-02  0.17502924325E+00  0.17504870094E+00  0.51109989000E-03 0.  1.
     -623    1    1    2    0    0 -0.13985736066E-02 -0.52890831150E-03  0.49905078567E-04  0.17130000001E+03  0.17130000000E+03 0. -1.
      622    1    1    2    0    0  0.28781512790E-03  0.28347053992E-02  0.38249208190E+01  0.38249512925E+01  0.15000000000E-01 0.  1.
</event>
<event>
 5   0  0.2306700E+09  0.9118800E+02  0.7818608E-02  0.1180000E+00
       11   -1    0    0    0    0  0.00000000000E+00  0.00000000000E+00  0.39999999673E+01  0.40000000000E+01  0.51109989000E-03 0.  1.
     -623   -1    0    0    0    0  0.00000000000E+00  0.00000000000E+00  0.12525980253E-10  0.17130000000E+03  0.17130000000E+03 0. -1.
       11    1    1    2    0    0 -0.32527635409E-02 -0.22749745040E-02  0.56233096866E-01  0.56375334907E-01  0.51109989000E-03 0.  1.
     -623    1    1    2    0    0  0.11054087581E-01  0.10920758429E-01  0.18863121161E-03  0.17130000070E+03  0.17130000000E+03 0. -1.
      622    1    1    2    0    0 -0.78013240438E-02 -0.86457839286E-02  0.39435782404E+01  0.39436239614E+01  0.15000000000E-01 0.  1.
</event>
<event>
 5   0  0.2306700E+09  0.9118800E+02  0.7818608E-02  0.1180000E+00
       11   -1    0    0    0    0  0.00000000000E+00  0.00000000000E+00  0.39999999673E+01  0.40000000000E+01  0.51109989000E-03 0. -1.
     -623   -1    0    0    0    0  0.00000000000E+00  0.00000000000E+00  0.12525980253E-10  0.17130000000E+03  0.17130000000E+03 0.  1.
       11    1    1    2    0    0  0.10863206028E-02  0.56495696348E-03  0.34028065526E-01  0.34053923935E-01  0.51109989000E-03 0. -1.
     -623    1    1    2    0    0  0.27266025459E-04 -0.51585377913E-04  0.54381954882E-04  0.17130000000E+03  0.17130000000E+03 0.  1.
      622    1    1    2    0    0 -0.11135866283E-02 -0.51337158559E-03  0.39659175178E+01  0.39659460740E+01  0.15000000000E-01 0. -1.
</event>
<event>
 5   0  0.2306700E+09  0.9118800E+02  0.7818608E-02  0.1180000E+00
       11   -1    0    0    0    0  0.00000000000E+00  0.00000000000E+00  0.39999999673E+01  0.40000000000E+01  0.51109989000E-03 0. -1.
     -623   -1    0    0    0    0  0.00000000000E+00  0.00000000000E+00  0.12525980253E-10  0.17130000000E+03  0.17130000000E+03 0. -1.
       11    1    1    2    0    0  0.14445076763E-03 -0.52482801145E-02  0.10264121498E+00  0.10277667801E+00  0.51109989000E-03 0. -1.
     -623    1    1    2    0    0  0.15537530724E-02  0.51882838743E-03  0.16754484327E-03  0.17130000001E+03  0.17130000000E+03 0. -1.
      622    1    1    2    0    0 -0.16982038401E-02  0.47294517271E-02  0.38971912075E+01  0.38972233141E+01  0.15000000000E-01 0. -1.
</event>
<event>
 5   0  0.2306700E+09  0.9118800E+02  0.7818608E-02  0.1180000E+00
       11   -1    0    0    0    0  0.00000000000E+00  0.00000000000E+00  0.39999999673E+01  0.40000000000E+01  0.51109989000E-03 0.  1.
     -623   -1    0    0    0    0  0.00000000000E+00  0.00000000000E+00  0.12525980253E-10  0.17130000000E+03  0.17130000000E+03 0. -1.
       11    1    1    2    0    0  0.23950945994E-03 -0.63785754395E-04  0.19880395483E-01  0.19888508769E-01  0.51109989000E-03 0. -1.
     -623    1    1    2    0    0  0.31725234010E-02 -0.19025114982E-02  0.38334471529E-04  0.17130000004E+03  0.17130000000E+03 0. -1.
      622    1    1    2    0    0 -0.34120328646E-02  0.19662972548E-02  0.39800812421E+01  0.39801114559E+01  0.15000000000E-01 0.  1.
</event>
<event>
 5   0  0.2306700E+09  0.9118800E+02  0.7818608E-02  0.1180000E+00
       11   -1    0    0    0    0  0.00000000000E+00  0.00000000000E+00  0.39999999673E+01  0.40000000000E+01  0.51109989000E-03 0.  1.
     -623   -1    0    0    0    0  0.00000000000E+00  0.00000000000E+00  0.12525980253E-10  0.17130000000E+03  0.17130000000E+03 0.  1.
       11    1    1    2    0    0 -0.18041941077E-03 -0.18155645476E-03  0.82316055429E-01  0.82318040037E-01  0.51109989000E-03 0.  1.
     -623    1    1    2    0    0 -0.25789241497E-04 -0.63147749983E-04  0.30681119242E-04  0.17130000000E+03  0.17130000000E+03 0.  1.
      622    1    1    2    0    0  0.20620865227E-03  0.24470420474E-03  0.39176532308E+01  0.39176819599E+01  0.15000000000E-01 0.  1.
</event>
<event>
 5   0  0.2306700E+09  0.9118800E+02  0.7818608E-02  0.1180000E+00
       11   -1    0    0    0    0  0.00000000000E+00  0.00000000000E+00  0.39999999673E+01  0.40000000000E+01  0.51109989000E-03 0. -1.
     -623   -1    0    0    0    0  0.00000000000E+00  0.00000000000E+00  0.12525980253E-10  0.17130000000E+03  0.17130000000E+03 0.  1.
       11    1    1    2    0    0  0.21064397071E-02  0.35064038316E-02  0.43548123837E-01  0.43742796765E-01  0.51109989000E-03 0. -1.
     -623    1    1    2    0    0  0.14561303682E-02 -0.52697930423E-03  0.22580944625E-03  0.17130000001E+03  0.17130000000E+03 0.  1.
      622    1    1    2    0    0 -0.35625700753E-02 -0.29794245274E-02  0.39562260342E+01  0.39562571962E+01  0.15000000000E-01 0. -1.
</event>
<event>
 5   0  0.2306700E+09  0.9118800E+02  0.7818608E-02  0.1180000E+00
       11   -1    0    0    0    0  0.00000000000E+00  0.00000000000E+00  0.39999999673E+01  0.40000000000E+01  0.51109989000E-03 0. -1.
     -623   -1    0    0    0    0  0.00000000000E+00  0.00000000000E+00  0.12525980253E-10  0.17130000000E+03  0.17130000000E+03 0. -1.
       11    1    1    2    0    0 -0.74930613897E-02 -0.45264578029E-02  0.19114719621E+00  0.19134823394E+00  0.51109989000E-03 0. -1.
     -623    1    1    2    0    0  0.28075490624E-03 -0.11087416516E-03  0.24019573494E-03  0.17130000000E+03  0.17130000000E+03 0. -1.
      622    1    1    2    0    0  0.72123064835E-02  0.46373319681E-02  0.38086125754E+01  0.38086517656E+01  0.15000000000E-01 0. -1.
</event>
<event>
 5   0  0.2306700E+09  0.9118800E+02  0.7818608E-02  0.1180000E+00
       11   -1    0    0    0    0  0.00000000000E+00  0.00000000000E+00  0.39999999673E+01  0.40000000000E+01  0.51109989000E-03 0.  1.
     -623   -1    0    0    0    0  0.00000000000E+00  0.00000000000E+00  0.12525980253E-10  0.17130000000E+03  0.17130000000E+03 0.  1.
       11    1    1    2    0    0  0.12553127900E-01  0.39965204883E-02  0.48561683401E+00  0.48579576356E+00  0.51109989000E-03 0.  1.
     -623    1    1    2    0    0 -0.51793850346E-02 -0.98966652707E-03  0.22001380970E-03  0.17130000008E+03  0.17130000000E+03 0.  1.
      622    1    1    2    0    0 -0.73737428664E-02 -0.30068539614E-02  0.35141631189E+01  0.35142041545E+01  0.15000000000E-01 0.  0.
</event>
<event>
 5   0  0.2306700E+09  0.9118800E+02  0.7818608E-02  0.1180000E+00
       11   -1    0    0    0    0  0.00000000000E+00  0.00000000000E+00  0.39999999673E+01  0.40000000000E+01  0.51109989000E-03 0.  1.
     -623   -1    0    0    0    0  0.00000000000E+00  0.00000000000E+00  0.12525980253E-10  0.17130000000E+03  0.17130000000E+03 0.  1.
       11    1    1    2    0    0 -0.11861401850E-02  0.12004584804E-02  0.17862753693E+00  0.17863623989E+00  0.51109989000E-03 0.  1.
     -623    1    1    2    0    0  0.52783692550E-05  0.11617398053E-03  0.38519501290E-04  0.17130000000E+03  0.17130000000E+03 0.  1.
      622    1    1    2    0    0  0.11808618157E-02 -0.13166324610E-02  0.38213339109E+01  0.38213637601E+01  0.15000000000E-01 0.  1.
</event>
<event>
 5   0  0.2306700E+09  0.9118800E+02  0.7818608E-02  0.1180000E+00
       11   -1    0    0    0    0  0.00000000000E+00  0.00000000000E+00  0.39999999673E+01  0.40000000000E+01  0.51109989000E-03 0.  1.
     -623   -1    0    0    0    0  0.00000000000E+00  0.00000000000E+00  0.12525980253E-10  0.17130000000E+03  0.17130000000E+03 0.  1.
       11    1    1    2    0    0 -0.86619463639E-03  0.10564014037E-02  0.15401415828E-01  0.15470329979E-01  0.51109989000E-03 0.  1.
     -623    1    1    2    0    0  0.88080644271E-03  0.21407977046E-02  0.98414236950E-04  0.17130000002E+03  0.17130000000E+03 0.  1.
      622    1    1    2    0    0 -0.14611807186E-04 -0.31971991105E-02  0.39845001413E+01  0.39845296583E+01  0.15000000000E-01 0.  1.
</event>
<event>
 5   0  0.2306700E+09  0.9118800E+02  0.7818608E-02  0.1180000E+00
       11   -1    0    0    0    0  0.00000000000E+00  0.00000000000E+00  0.39999999673E+01  0.40000000000E+01  0.51109989000E-03 0. -1.
     -623   -1    0    0    0    0  0.00000000000E+00  0.00000000000E+00  0.12525980253E-10  0.17130000000E+03  0.17130000000E+03 0. -1.
       11    1    1    2    0    0  0.11142408774E-01  0.81773936131E-03  0.10440961568E+00  0.10500690949E+00  0.51109989000E-03 0. -1.
     -623    1    1    2    0    0 -0.13129829688E-01 -0.23003041724E-02  0.62745349655E-03  0.17130000052E+03  0.17130000000E+03 0. -1.
      622    1    1    2    0    0  0.19874209139E-02  0.14825648111E-02  0.38949628982E+01  0.38949925707E+01  0.15000000000E-01 0. -1.
</event>
<event>
 5   0  0.2306700E+09  0.9118800E+02  0.7818608E-02  0.1180000E+00
       11   -1    0    0    0    0  0.00000000000E+00  0.00000000000E+00  0.39999999673E+01  0.40000000000E+01  0.51109989000E-03 0.  1.
     -623   -1    0    0    0    0  0.00000000000E+00  0.00000000000E+00  0.12525980253E-10  0.17130000000E+03  0.17130000000E+03 0. -1.
       11    1    1    2    0    0  0.12299604275E-02  0.16022372583E-02  0.10480551859E-01  0.10685651882E-01  0.51109989000E-03 0.  1.
     -623    1    1    2    0    0 -0.76452659803E-03 -0.81669985924E-03  0.23337612158E-03  0.17130000000E+03  0.17130000000E+03 0. -1.
      622    1    1    2    0    0 -0.46543382944E-03 -0.78553739906E-03  0.39892860394E+01  0.39893143443E+01  0.15000000000E-01 0.  1.
</event>
<event>
 5   0  0.2306700E+09  0.9118800E+02  0.7818608E-02  0.1180000E+00
       11   -1    0    0    0    0  0.00000000000E+00  0.00000000000E+00  0.39999999673E+01  0.40000000000E+01  0.51109989000E-03 0. -1.
     -623   -1    0    0    0    0  0.00000000000E+00  0.00000000000E+00  0.12525980253E-10  0.17130000000E+03  0.17130000000E+03 0. -1.
       11    1    1    2    0    0  0.31858772598E-02  0.12821416221E-02  0.32559522673E+00  0.32561373834E+00  0.51109989000E-03 0. -1.
     -623    1    1    2    0    0 -0.20452534932E-02  0.32520887201E-02  0.52114248803E-04  0.17130000004E+03  0.17130000000E+03 0. -1.
      622    1    1    2    0    0 -0.11406237604E-02 -0.45342303521E-02  0.36743526385E+01  0.36743862307E+01  0.15000000000E-01 0. -1.
</event>
<event>
 5   0  0.2306700E+09  0.9118800E+02  0.7818608E-02  0.1180000E+00
       11   -1    0    0    0    0  0.00000000000E+00  0.00000000000E+00  0.39999999673E+01  0.40000000000E+01  0.51109989000E-03 0. -1.
     -623   -1    0    0    0    0  0.00000000000E+00  0.00000000000E+00  0.12525980253E-10  0.17130000000E+03  0.17130000000E+03 0. -1.
       11    1    1    2    0    0 -0.19304479082E-02 -0.62757784906E-03  0.44125277498E+00  0.44125774002E+00  0.51109989000E-03 0. -1.
     -623    1    1    2    0    0  0.23867165927E-04 -0.10980488002E-04  0.37112860378E-04  0.17130000000E+03  0.17130000000E+03 0. -1.
      622    1    1    2    0    0  0.19065807423E-02  0.63855833706E-03  0.35587100795E+01  0.35587422600E+01  0.15000000000E-01 0. -1.
</event>
<event>
 5   0  0.2306700E+09  0.9118800E+02  0.7818608E-02  0.1180000E+00
       11   -1    0    0    0    0  0.00000000000E+00  0.00000000000E+00  0.39999999673E+01  0.40000000000E+01  0.51109989000E-03 0. -1.
     -623   -1    0    0    0    0  0.00000000000E+00  0.00000000000E+00  0.12525980253E-10  0.17130000000E+03  0.17130000000E+03 0.  1.
       11    1    1    2    0    0 -0.44634971450E-03  0.71214288729E-03  0.10434863705E-01  0.10481124902E-01  0.51109989000E-03 0. -1.
     -623    1    1    2    0    0  0.23532063405E-03  0.19598686767E-03  0.74536775290E-04  0.17130000000E+03  0.17130000000E+03 0.  1.
      622    1    1    2    0    0  0.21102908046E-03 -0.90812975496E-03  0.39894905668E+01  0.39895188747E+01  0.15000000000E-01 0. -1.
</event>
<event>
 5   0  0.2306700E+09  0.9118800E+02  0.7818608E-02  0.1180000E+00
       11   -1    0    0    0    0  0.00000000000E+00  0.00000000000E+00  0.39999999673E+01  0.40000000000E+01  0.51109989000E-03 0.  1.
     -623   -1    0    0    0    0  0.00000000000E+00  0.00000000000E+00  0.12525980253E-10  0.17130000000E+03  0.17130000000E+03 0.  1.
       11    1    1    2    0    0 -0.13543732514E-03  0.16189828487E-02  0.30347104121E-01  0.30394858122E-01  0.51109989000E-03 0.  1.
     -623    1    1    2    0    0  0.85039109285E-03 -0.27003529932E-02  0.76296899668E-04  0.17130000002E+03  0.17130000000E+03 0.  1.
      622    1    1    2    0    0 -0.71495376771E-03  0.10813701445E-02  0.39695765663E+01  0.39696051185E+01  0.15000000000E-01 0.  1.
</event>
<event>
 5   0  0.2306700E+09  0.9118800E+02  0.7818608E-02  0.1180000E+00
       11   -1    0    0    0    0  0.00000000000E+00  0.00000000000E+00  0.39999999673E+01  0.40000000000E+01  0.51109989000E-03 0.  1.
     -623   -1    0    0    0    0  0.00000000000E+00  0.00000000000E+00  0.12525980253E-10  0.17130000000E+03  0.17130000000E+03 0. -1.
       11    1    1    2    0    0 -0.18144727930E-02  0.29898469783E-02  0.19480180612E+00  0.19483386868E+00  0.51109989000E-03 0.  1.
     -623    1    1    2    0    0  0.58955423330E-03 -0.19595591016E-03  0.62819096386E-04  0.17130000000E+03  0.17130000000E+03 0. -1.
      622    1    1    2    0    0  0.12249185597E-02 -0.27938910681E-02  0.38051353421E+01  0.38051661302E+01  0.15000000000E-01 0.  1.
</event>
<event>
 5   0  0.2306700E+09  0.9118800E+02  0.7818608E-02  0.1180000E+00
       11   -1    0    0    0    0  0.00000000000E+00  0.00000000000E+00  0.39999999673E+01  0.40000000000E+01  0.51109989000E-03 0.  1.
     -623   -1    0    0    0    0  0.00000000000E+00  0.00000000000E+00  0.12525980253E-10  0.17130000000E+03  0.17130000000E+03 0.  1.
       11    1    1    2    0    0 -0.40391910130E-02 -0.18153248818E-02  0.88838605097E+00  0.88839723505E+00  0.51109989000E-03 0.  1.
     -623    1    1    2    0    0 -0.23987914934E-02  0.23289849543E-03  0.54386255084E-04  0.17130000002E+03  0.17130000000E+03 0.  1.
      622    1    1    2    0    0  0.64379825064E-02  0.15824263864E-02  0.31115595301E+01  0.31116027480E+01  0.15000000000E-01 0.  1.
</event>
<event>
 5   0  0.2306700E+09  0.9118800E+02  0.7818608E-02  0.1180000E+00
       11   -1    0    0    0    0  0.00000000000E+00  0.00000000000E+00  0.39999999673E+01  0.40000000000E+01  0.51109989000E-03 0. -1.
     -623   -1    0    0    0    0  0.00000000000E+00  0.00000000000E+00  0.12525980253E-10  0.17130000000E+03  0.17130000000E+03 0. -1.
       11    1    1    2    0    0 -0.46587503334E-02  0.17443759014E-02  0.13739991244E+00  0.13749088684E+00  0.51109989000E-03 0. -1.
     -623    1    1    2    0    0 -0.11199946156E-02 -0.92091860827E-02  0.13185556827E-03  0.17130000025E+03  0.17130000000E+03 0. -1.
      622    1    1    2    0    0  0.57787449484E-02  0.74648101764E-02  0.38624681973E+01  0.38625088598E+01  0.15000000000E-01 0. -1.
</event>
<event>
 5   0  0.2306700E+09  0.9118800E+02  0.7818608E-02  0.1180000E+00
       11   -1    0    0    0    0  0.00000000000E+00  0.00000000000E+00  0.39999999673E+01  0.40000000000E+01  0.51109989000E-03 0.  1.
     -623   -1    0    0    0    0  0.00000000000E+00  0.00000000000E+00  0.12525980253E-10  0.17130000000E+03  0.17130000000E+03 0.  1.
       11    1    1    2    0    0  0.22181161814E-03 -0.16508167282E-03  0.13457571309E+00  0.13457696767E+00  0.51109989000E-03 0.  1.
     -623    1    1    2    0    0 -0.70030502228E-04 -0.95690070947E-04  0.30338064771E-04  0.17130000000E+03  0.17130000000E+03 0.  1.
      622    1    1    2    0    0 -0.15178111596E-03  0.26077174371E-03  0.38653939139E+01  0.38654230300E+01  0.15000000000E-01 0.  1.
</event>
<event>
 5   0  0.2306700E+09  0.9118800E+02  0.7818608E-02  0.1180000E+00
       11   -1    0    0    0    0  0.00000000000E+00  0.00000000000E+00  0.39999999673E+01  0.40000000000E+01  0.51109989000E-03 0. -1.
     -623   -1    0    0    0    0  0.00000000000E+00  0.00000000000E+00  0.12525980253E-10  0.17130000000E+03  0.17130000000E+03 0. -1.
       11    1    1    2    0    0 -0.52395357333E-02  0.19923978581E-02  0.50314655115E+00  0.50317803563E+00  0.51109989000E-03 0. -1.
     -623    1    1    2    0    0 -0.77039004162E-03 -0.11385780064E-02  0.68898455950E-04  0.17130000001E+03  0.17130000000E+03 0. -1.
      622    1    1    2    0    0  0.60099257745E-02 -0.85381985240E-03  0.34967845156E+01  0.34968219567E+01  0.15000000000E-01 0. -1.
</event>
<event>
 5   0  0.2306700E+09  0.9118800E+02  0.7818608E-02  0.1180000E+00
       11   -1    0    0    0    0  0.00000000000E+00  0.00000000000E+00  0.39999999673E+01  0.40000000000E+01  0.51109989000E-03 0. -1.
     -623   -1    0    0    0    0  0.00000000000E+00  0.00000000000E+00  0.12525980253E-10  0.17130000000E+03  0.17130000000E+03 0. -1.
       11    1    1    2    0    0  0.31200325631E-03  0.97624391376E-03  0.17698694169E-01  0.17735709581E-01  0.51109989000E-03 0. -1.
     -623    1    1    2    0    0 -0.11516139923E-03  0.40934963152E-04  0.65367961761E-04  0.17130000000E+03  0.17130000000E+03 0. -1.
      622    1    1    2    0    0 -0.19684185709E-03 -0.10171788769E-02  0.39822359052E+01  0.39822642904E+01  0.15000000000E-01 0. -1.
</event>
<event>
 5   0  0.2306700E+09  0.9118800E+02  0.7818608E-02  0.1180000E+00
       11   -1    0    0    0    0  0.00000000000E+00  0.00000000000E+00  0.39999999673E+01  0.40000000000E+01  0.51109989000E-03 0.  1.
     -623   -1    0    0    0    0  0.00000000000E+00  0.00000000000E+00  0.12525980253E-10  0.17130000000E+03  0.17130000000E+03 0. -1.
       11    1    1    2    0    0  0.37670239812E-03 -0.56670076172E-04  0.18285593939E-01  0.18296701478E-01  0.51109989000E-03 0.  1.
     -623    1    1    2    0    0 -0.28249951329E-03 -0.38417783217E-03  0.39355427302E-04  0.17130000000E+03  0.17130000000E+03 0. -1.
      622    1    1    2    0    0 -0.94202884822E-04  0.44084790835E-03  0.39816750180E+01  0.39817032979E+01  0.15000000000E-01 0.  1.
</event>
<event>
 5   0  0.2306700E+09  0.9118800E+02  0.7818608E-02  0.1180000E+00
       11   -1    0    0    0    0  0.00000000000E+00  0.00000000000E+00  0.39999999673E+01  0.40000000000E+01  0.51109989000E-03 0. -1.
     -623   -1    0    0    0    0  0.00000000000E+00  0.00000000000E+00  0.12525980253E-10  0.17130000000E+03  0.17130000000E+03 0.  1.
       11    1    1    2    0    0  0.94183988611E-04 -0.14266505021E-03  0.10030820973E-01  0.10045288270E-01  0.51109989000E-03 0.  1.
     -623    1    1    2    0    0  0.63138428430E-03  0.17202233868E-02  0.43018215754E-04  0.17130000001E+03  0.17130000000E+03 0.  1.
      622    1    1    2    0    0 -0.72556827404E-03 -0.15775583396E-02  0.39899261353E+01  0.39899547091E+01  0.15000000000E-01 0. -1.
</event>
<event>
 5   0  0.2306700E+09  0.9118800E+02  0.7818608E-02  0.1180000E+00
       11   -1    0    0    0    0  0.00000000000E+00  0.00000000000E+00  0.39999999673E+01  0.40000000000E+01  0.51109989000E-03 0. -1.
     -623   -1    0    0    0    0  0.00000000000E+00  0.00000000000E+00  0.12525980253E-10  0.17130000000E+03  0.17130000000E+03 0.  1.
       11    1    1    2    0    0  0.72238081481E-03  0.63331026216E-03  0.15142435871E-01  0.15181485538E-01  0.51109989000E-03 0. -1.
     -623    1    1    2    0    0  0.47654203039E-03 -0.15314522845E-02  0.67538380244E-04  0.17130000001E+03  0.17130000000E+03 0.  1.
      622    1    1    2    0    0 -0.11989228451E-02  0.89814202210E-03  0.39847899926E+01  0.39848185064E+01  0.15000000000E-01 0. -1.
</event>
<event>
 5   0  0.2306700E+09  0.9118800E+02  0.7818608E-02  0.1180000E+00
       11   -1    0    0    0    0  0.00000000000E+00  0.00000000000E+00  0.39999999673E+01  0.40000000000E+01  0.51109989000E-03 0.  1.
     -623   -1    0    0    0    0  0.00000000000E+00  0.00000000000E+00  0.12525980253E-10  0.17130000000E+03  0.17130000000E+03 0. -1.
       11    1    1    2    0    0  0.64158550921E-01  0.24684050836E-01  0.11873783188E+01  0.11893667034E+01  0.51109989000E-03 0.  1.
     -623    1    1    2    0    0 -0.16117526677E-01 -0.30247040268E-02  0.25232617298E-02  0.17130000080E+03  0.17130000000E+03 0. -1.
      622    1    1    2    0    0 -0.48041024243E-01 -0.21659346809E-01  0.28100983871E+01  0.28106324933E+01  0.15000000000E-01 0.  1.
</event>
<event>
 5   0  0.2306700E+09  0.9118800E+02  0.7818608E-02  0.1180000E+00
       11   -1    0    0    0    0  0.00000000000E+00  0.00000000000E+00  0.39999999673E+01  0.40000000000E+01  0.51109989000E-03 0. -1.
     -623   -1    0    0    0    0  0.00000000000E+00  0.00000000000E+00  0.12525980253E-10  0.17130000000E+03  0.17130000000E+03 0. -1.
       11    1    1    2    0    0 -0.45010671016E-03  0.80339365648E-03  0.36484533796E+00  0.36484685814E+00  0.51109989000E-03 0. -1.
     -623    1    1    2    0    0  0.50185171310E-03  0.38106525769E-02  0.35407258331E-04  0.17130000004E+03  0.17130000000E+03 0. -1.
      622    1    1    2    0    0 -0.51745004540E-04 -0.46140462454E-02  0.36351192348E+01  0.36351531114E+01  0.15000000000E-01 0.  0.
</event>
<event>
 5   0  0.2306700E+09  0.9118800E+02  0.7818608E-02  0.1180000E+00
       11   -1    0    0    0    0  0.00000000000E+00  0.00000000000E+00  0.39999999673E+01  0.40000000000E+01  0.51109989000E-03 0.  1.
     -623   -1    0    0    0    0  0.00000000000E+00  0.00000000000E+00  0.12525980253E-10  0.17130000000E+03  0.17130000000E+03 0. -1.
       11    1    1    2    0    0  0.85576116139E-03 -0.52738122630E-03  0.34367615390E+00  0.34367800401E+00  0.51109989000E-03 0.  1.
     -623    1    1    2    0    0  0.21438721355E-04 -0.65459768415E-03  0.32883754509E-04  0.17130000000E+03  0.17130000000E+03 0. -1.
      622    1    1    2    0    0 -0.87719988275E-03  0.11819789105E-02  0.36562909297E+01  0.36563219947E+01  0.15000000000E-01 0.  1.
</event>
<event>
 5   0  0.2306700E+09  0.9118800E+02  0.7818608E-02  0.1180000E+00
       11   -1    0    0    0    0  0.00000000000E+00  0.00000000000E+00  0.39999999673E+01  0.40000000000E+01  0.51109989000E-03 0. -1.
     -623   -1    0    0    0    0  0.00000000000E+00  0.00000000000E+00  0.12525980253E-10  0.17130000000E+03  0.17130000000E+03 0.  1.
       11    1    1    2    0    0 -0.51825040392E-02  0.13650055328E-02  0.40479340340E+00  0.40482920133E+00  0.51109989000E-03 0. -1.
     -623    1    1    2    0    0  0.14995108037E-03  0.14567735224E-02  0.71693404711E-04  0.17130000001E+03  0.17130000000E+03 0.  1.
      622    1    1    2    0    0  0.50325529588E-02 -0.28217790554E-02  0.35951348711E+01  0.35951707929E+01  0.15000000000E-01 0. -1.
</event>
<event>
 5   0  0.2306700E+09  0.9118800E+02  0.7818608E-02  0.1180000E+00
       11   -1    0    0    0    0  0.00000000000E+00  0.00000000000E+00  0.39999999673E+01  0.40000000000E+01  0.51109989000E-03 0.  1.
     -623   -1    0    0    0    0  0.00000000000E+00  0.00000000000E+00  0.12525980253E-10  0.17130000000E+03  0.17130000000E+03 0.  1.
       11    1    1    2    0    0 -0.54598301369E-03  0.48926007561E-04  0.21846113942E-01  0.21858966322E-01  0.51109989000E-03 0.  1.
     -623    1    1    2    0    0  0.27923645688E-03  0.11191638258E-03  0.41111844586E-04  0.17130000000E+03  0.17130000000E+03 0.  1.
      622    1    1    2    0    0  0.26674655644E-03 -0.16084239029E-03  0.39781127468E+01  0.39781410387E+01  0.15000000000E-01 0.  1.
</event>
<event>
 5   0  0.2306700E+09  0.9118800E+02  0.7818608E-02  0.1180000E+00
       11   -1    0    0    0    0  0.00000000000E+00  0.00000000000E+00  0.39999999673E+01  0.40000000000E+01  0.51109989000E-03 0.  1.
     -623   -1    0    0    0    0  0.00000000000E+00  0.00000000000E+00  0.12525980253E-10  0.17130000000E+03  0.17130000000E+03 0.  1.
       11    1    1    2    0    0 -0.15602796091E-02  0.81574163414E-02  0.33599988517E+00  0.33610290384E+00  0.51109989000E-03 0.  1.
     -623    1    1    2    0    0 -0.42074176380E-02 -0.40256588984E-02  0.14065969305E-03  0.17130000010E+03  0.17130000000E+03 0.  1.
      622    1    1    2    0    0  0.57676972472E-02 -0.41317574430E-02  0.36638594225E+01  0.36638969971E+01  0.15000000000E-01 0.  1.
</event>
<event>
 5   0  0.2306700E+09  0.9118800E+02  0.7818608E-02  0.1180000E+00
       11   -1    0    0    0    0  0.00000000000E+00  0.00000000000E+00  0.39999999673E+01  0.40000000000E+01  0.51109989000E-03 0. -1.
     -623   -1    0    0    0    0  0.00000000000E+00  0.00000000000E+00  0.12525980253E-10  0.17130000000E+03  0.17130000000E+03 0.  1.
       11    1    1    2    0    0 -0.74775775655E-02 -0.54530698535E-02  0.32211808543E+00  0.32225141166E+00  0.51109989000E-03 0. -1.
     -623    1    1    2    0    0 -0.50009473079E-03  0.45478319532E-03  0.17593359901E-03  0.17130000000E+03  0.17130000000E+03 0.  1.
      622    1    1    2    0    0  0.79776722965E-02  0.49982866579E-02  0.36777059508E+01  0.36777485894E+01  0.15000000000E-01 0. -1.
</event>
<event>
 5   0  0.2306700E+09  0.9118800E+02  0.7818608E-02  0.1180000E+00
       11   -1    0    0    0    0  0.00000000000E+00  0.00000000000E+00  0.39999999673E+01  0.40000000000E+01  0.51109989000E-03 0.  1.
     -623   -1    0    0    0    0  0.00000000000E+00  0.00000000000E+00  0.12525980253E-10  0.17130000000E+03  0.17130000000E+03 0.  1.
       11    1    1    2    0    0 -0.39131611963E-03  0.19766730678E-02  0.72196172738E-01  0.72226096017E-01  0.51109989000E-03 0.  1.
     -623    1    1    2    0    0  0.43488798571E-03 -0.44064352106E-03  0.58834640602E-04  0.17130000000E+03  0.17130000000E+03 0.  1.
      622    1    1    2    0    0 -0.43571866442E-04 -0.15360295463E-02  0.39277449633E+01  0.39277739062E+01  0.15000000000E-01 0.  1.
</event>
<event>
 5   0  0.2306700E+09  0.9118800E+02  0.7818608E-02  0.1180000E+00
       11   -1    0    0    0    0  0.00000000000E+00  0.00000000000E+00  0.39999999673E+01  0.40000000000E+01  0.51109989000E-03 0.  1.
     -623   -1    0    0    0    0  0.00000000000E+00  0.00000000000E+00  0.12525980253E-10  0.17130000000E+03  0.17130000000E+03 0. -1.
       11    1    1    2    0    0  0.72818077413E-03 -0.77494948140E-03  0.43588105827E-01  0.43604070746E-01  0.51109989000E-03 0.  1.
     -623    1    1    2    0    0  0.93452964113E-04  0.16051256772E-03  0.44500485394E-04  0.17130000000E+03  0.17130000000E+03 0. -1.
      622    1    1    2    0    0 -0.82163373825E-03  0.61443691368E-03  0.39563673610E+01  0.39563959291E+01  0.15000000000E-01 0.  1.
</event>
<event>
 5   0  0.2306700E+09  0.9118800E+02  0.7818608E-02  0.1180000E+00
       11   -1    0    0    0    0  0.00000000000E+00  0.00000000000E+00  0.39999999673E+01  0.40000000000E+01  0.51109989000E-03 0.  1.
     -623   -1    0    0    0    0  0.00000000000E+00  0.00000000000E+00  0.12525980253E-10  0.17130000000E+03  0.17130000000E+03 0.  1.
       11    1    1    2    0    0  0.11551022073E-02  0.15665858574E-02  0.40674830150E-01  0.40724580813E-01  0.51109989000E-03 0.  1.
     -623    1    1    2    0    0  0.27283606139E-03 -0.11527206267E-03  0.78656187112E-04  0.17130000000E+03  0.17130000000E+03 0.  1.
      622    1    1    2    0    0 -0.14279382687E-02 -0.14513137947E-02  0.39592464810E+01  0.39592754189E+01  0.15000000000E-01 0.  1.
</event>
<event>
 5   0  0.2306700E+09  0.9118800E+02  0.7818608E-02  0.1180000E+00
       11   -1    0    0    0    0  0.00000000000E+00  0.00000000000E+00  0.39999999673E+01  0.40000000000E+01  0.51109989000E-03 0. -1.
     -623   -1    0    0    0    0  0.00000000000E+00  0.00000000000E+00  0.12525980253E-10  0.17130000000E+03  0.17130000000E+03 0. -1.
       11    1    1    2    0    0  0.11288312341E-02  0.67752313206E-03  0.36525634053E-01  0.36552926881E-01  0.51109989000E-03 0. -1.
     -623    1    1    2    0    0 -0.67210744019E-04  0.30776461411E-03  0.55909621019E-04  0.17130000000E+03  0.17130000000E+03 0. -1.
      622    1    1    2    0    0 -0.10616204900E-02 -0.98528774670E-03  0.39634184305E+01  0.39634470797E+01  0.15000000000E-01 0. -1.
</event>
<event>
 5   0  0.2306700E+09  0.9118800E+02  0.7818608E-02  0.1180000E+00
       11   -1    0    0    0    0  0.00000000000E+00  0.00000000000E+00  0.39999999673E+01  0.40000000000E+01  0.51109989000E-03 0.  1.
     -623   -1    0    0    0    0  0.00000000000E+00  0.00000000000E+00  0.12525980253E-10  0.17130000000E+03  0.17130000000E+03 0.  1.
       11    1    1    2    0    0  0.73829983546E-03  0.10951825359E-02  0.11841188392E-03  0.14211811657E-02  0.51109989000E-03 0.  1.
     -623    1    1    2    0    0 -0.23579589177E-03  0.25467037460E-02  0.13325861070E-02  0.17130000002E+03  0.17130000000E+03 0.  1.
      622    1    1    2    0    0 -0.50250394370E-03 -0.36418862818E-02  0.39985489692E+01  0.39985787943E+01  0.15000000000E-01 0.  1.
</event>
<event>
 5   0  0.2306700E+09  0.9118800E+02  0.7818608E-02  0.1180000E+00
       11   -1    0    0    0    0  0.00000000000E+00  0.00000000000E+00  0.39999999673E+01  0.40000000000E+01  0.51109989000E-03 0.  1.
     -623   -1    0    0    0    0  0.00000000000E+00  0.00000000000E+00  0.12525980253E-10  0.17130000000E+03  0.17130000000E+03 0.  1.
       11    1    1    2    0    0 -0.25450315521E-03  0.18930848179E-02  0.15578916396E+00  0.15580171171E+00  0.51109989000E-03 0.  1.
     -623    1    1    2    0    0 -0.60797545402E-03 -0.57304557821E-03  0.42105538542E-04  0.17130000000E+03  0.17130000000E+03 0.  1.
      622    1    1    2    0    0  0.86247860924E-03 -0.13200392397E-02  0.38441686979E+01  0.38441982862E+01  0.15000000000E-01 0.  1.
</event>
<event>
 5   0  0.2306700E+09  0.9118800E+02  0.7818608E-02  0.1180000E+00
       11   -1    0    0    0    0  0.00000000000E+00  0.00000000000E+00  0.39999999673E+01  0.40000000000E+01  0.51109989000E-03 0.  1.
     -623   -1    0    0    0    0  0.00000000000E+00  0.00000000000E+00  0.12525980253E-10  0.17130000000E+03  0.17130000000E+03 0.  1.
       11    1    1    2    0    0  0.13783213393E-02 -0.95588803076E-04  0.31408364637E+00  0.31408710105E+00  0.51109989000E-03 0.  1.
     -623    1    1    2    0    0  0.17149967036E-03  0.49147567001E-03  0.34291662510E-04  0.17130000000E+03  0.17130000000E+03 0.  1.
      622    1    1    2    0    0 -0.15498210096E-02 -0.39588686693E-03  0.36858820293E+01  0.36859128982E+01  0.15000000000E-01 0.  1.
</event>
<event>
 5   0  0.2306700E+09  0.9118800E+02  0.7818608E-02  0.1180000E+00
       11   -1    0    0    0    0  0.00000000000E+00  0.00000000000E+00  0.39999999673E+01  0.40000000000E+01  0.51109989000E-03 0.  1.
     -623   -1    0    0    0    0  0.00000000000E+00  0.00000000000E+00  0.12525980253E-10  0.17130000000E+03  0.17130000000E+03 0.  1.
       11    1    1    2    0    0 -0.89937288037E-03 -0.48517337106E-03  0.11443226922E+00  0.11443797326E+00  0.51109989000E-03 0.  1.
     -623    1    1    2    0    0 -0.70461647229E-03  0.12806807933E-02  0.35043594829E-04  0.17130000001E+03  0.17130000000E+03 0.  1.
      622    1    1    2    0    0  0.16039893527E-02 -0.79550742228E-03  0.38855326545E+01  0.38855620205E+01  0.15000000000E-01 0.  1.
</event>
<event>
 5   0  0.2306700E+09  0.9118800E+02  0.7818608E-02  0.1180000E+00
       11   -1    0    0    0    0  0.00000000000E+00  0.00000000000E+00  0.39999999673E+01  0.40000000000E+01  0.51109989000E-03 0. -1.
     -623   -1    0    0    0    0  0.00000000000E+00  0.00000000000E+00  0.12525980253E-10  0.17130000000E+03  0.17130000000E+03 0.  1.
       11    1    1    2    0    0 -0.14021630254E-02  0.57395341751E-03  0.14223700112E+00  0.14224598833E+00  0.51109989000E-03 0. -1.
     -623    1    1    2    0    0  0.18616634645E-02 -0.90286071551E-04  0.38184551098E-04  0.17130000001E+03  0.17130000000E+03 0.  1.
      622    1    1    2    0    0 -0.45950043509E-03 -0.48366734615E-03  0.38577247732E+01  0.38577539930E+01  0.15000000000E-01 0. -1.
</event>
<event>
 5   0  0.2306700E+09  0.9118800E+02  0.7818608E-02  0.1180000E+00
       11   -1    0    0    0    0  0.00000000000E+00  0.00000000000E+00  0.39999999673E+01  0.40000000000E+01  0.51109989000E-03 0. -1.
     -623   -1    0    0    0    0  0.00000000000E+00  0.00000000000E+00  0.12525980253E-10  0.17130000000E+03  0.17130000000E+03 0. -1.
       11    1    1    2    0    0 -0.77126987265E-02 -0.13888318784E-01  0.30327526731E+00  0.30369148836E+00  0.51109989000E-03 0. -1.
     -623    1    1    2    0    0 -0.25624564622E-04  0.39499787557E-02  0.46813163519E-03  0.17130000005E+03  0.17130000000E+03 0. -1.
      622    1    1    2    0    0  0.77383232911E-02  0.99383400284E-02  0.36962565684E+01  0.36963084655E+01  0.15000000000E-01 0. -1.
</event>
<event>
 5   0  0.2306700E+09  0.9118800E+02  0.7818608E-02  0.1180000E+00
       11   -1    0    0    0    0  0.00000000000E+00  0.00000000000E+00  0.39999999673E+01  0.40000000000E+01  0.51109989000E-03 0. -1.
     -623   -1    0    0    0    0  0.00000000000E+00  0.00000000000E+00  0.12525980253E-10  0.17130000000E+03  0.17130000000E+03 0.  1.
       11    1    1    2    0    0  0.96213417990E-03 -0.17920027952E-02  0.49706459883E-01  0.49750681916E-01  0.51109989000E-03 0. -1.
     -623    1    1    2    0    0 -0.76562339437E-03  0.31972369799E-03  0.72949988937E-04  0.17130000000E+03  0.17130000000E+03 0.  1.
      622    1    1    2    0    0 -0.19651078554E-03  0.14722790972E-02  0.39502205575E+01  0.39502493161E+01  0.15000000000E-01 0. -1.
</event>
<event>
 5   0  0.2306700E+09  0.9118800E+02  0.7818608E-02  0.1180000E+00
       11   -1    0    0    0    0  0.00000000000E+00  0.00000000000E+00  0.39999999673E+01  0.40000000000E+01  0.51109989000E-03 0.  1.
     -623   -1    0    0    0    0  0.00000000000E+00  0.00000000000E+00  0.12525980253E-10  0.17130000000E+03  0.17130000000E+03 0. -1.
       11    1    1    2    0    0  0.13461770030E-03 -0.25583372199E-03  0.71556236456E-01  0.71558645668E-01  0.51109989000E-03 0.  1.
     -623    1    1    2    0    0 -0.53825493562E-03 -0.17879655867E-03  0.31059709062E-04  0.17130000000E+03  0.17130000000E+03 0. -1.
      622    1    1    2    0    0  0.40363723532E-03  0.43463028065E-03  0.39284126712E+01  0.39284413534E+01  0.15000000000E-01 0.  1.
</event>
<event>
 5   0  0.2306700E+09  0.9118800E+02  0.7818608E-02  0.1180000E+00
       11   -1    0    0    0    0  0.00000000000E+00  0.00000000000E+00  0.39999999673E+01  0.40000000000E+01  0.51109989000E-03 0. -1.
     -623   -1    0    0    0    0  0.00000000000E+00  0.00000000000E+00  0.12525980253E-10  0.17130000000E+03  0.17130000000E+03 0. -1.
       11    1    1    2    0    0 -0.21608956586E-02  0.16225380342E-03  0.14000303395E+00  0.14002073608E+00  0.51109989000E-03 0. -1.
     -623    1    1    2    0    0 -0.15567790193E-04  0.66015926784E-04  0.47435220026E-04  0.17130000000E+03  0.17130000000E+03 0. -1.
      622    1    1    2    0    0  0.21764634488E-02 -0.22826973028E-03  0.38599495028E+01  0.38599792685E+01  0.15000000000E-01 0. -1.
</event>
<event>
 5   0  0.2306700E+09  0.9118800E+02  0.7818608E-02  0.1180000E+00
       11   -1    0    0    0    0  0.00000000000E+00  0.00000000000E+00  0.39999999673E+01  0.40000000000E+01  0.51109989000E-03 0.  1.
     -623   -1    0    0    0    0  0.00000000000E+00  0.00000000000E+00  0.12525980253E-10  0.17130000000E+03  0.17130000000E+03 0. -1.
       11    1    1    2    0    0  0.86144059554E-03 -0.12657552482E-02  0.28880914174E+00  0.28881365236E+00  0.51109989000E-03 0.  1.
     -623    1    1    2    0    0 -0.86891647200E-04 -0.11321733773E-03  0.35128950751E-04  0.17130000000E+03  0.17130000000E+03 0. -1.
      622    1    1    2    0    0 -0.77454894821E-03  0.13789725861E-02  0.37111557029E+01  0.37111863538E+01  0.15000000000E-01 0.  1.
</event>
<event>
 5   0  0.2306700E+09  0.9118800E+02  0.7818608E-02  0.1180000E+00
       11   -1    0    0    0    0  0.00000000000E+00  0.00000000000E+00  0.39999999673E+01  0.40000000000E+01  0.51109989000E-03 0. -1.
     -623   -1    0    0    0    0  0.00000000000E+00  0.00000000000E+00  0.12525980253E-10  0.17130000000E+03  0.17130000000E+03 0. -1.
       11    1    1    2    0    0 -0.91699285766E-02 -0.83798826754E-03  0.20645281988E+00  0.20665869901E+00  0.51109989000E-03 0. -1.
     -623    1    1    2    0    0  0.17197828349E-02  0.89955860490E-03  0.24283162807E-03  0.17130000001E+03  0.17130000000E+03 0. -1.
      622    1    1    2    0    0  0.74501457421E-02 -0.61570337163E-04  0.37933043150E+01  0.37933412890E+01  0.15000000000E-01 0. -1.
</event>
<event>
 5   0  0.2306700E+09  0.9118800E+02  0.7818608E-02  0.1180000E+00
       11   -1    0    0    0    0  0.00000000000E+00  0.00000000000E+00  0.39999999673E+01  0.40000000000E+01  0.51109989000E-03 0.  1.
     -623   -1    0    0    0    0  0.00000000000E+00  0.00000000000E+00  0.12525980253E-10  0.17130000000E+03  0.17130000000E+03 0.  1.
       11    1    1    2    0    0  0.91933688195E-02  0.49342561187E-02  0.91289307726E+00  0.91295284470E+00  0.51109989000E-03 0.  1.
     -623    1    1    2    0    0 -0.14394315492E-02 -0.20140965411E-02  0.10731486222E-03  0.17130000002E+03  0.17130000000E+03 0.  1.
      622    1    1    2    0    0 -0.77539372711E-02 -0.29201595787E-02  0.30869995730E+01  0.30870471352E+01  0.15000000000E-01 0.  1.
</event>
<event>
 5   0  0.2306700E+09  0.9118800E+02  0.7818608E-02  0.1180000E+00
       11   -1    0    0    0    0  0.00000000000E+00  0.00000000000E+00  0.39999999673E+01  0.40000000000E+01  0.51109989000E-03 0.  1.
     -623   -1    0    0    0    0  0.00000000000E+00  0.00000000000E+00  0.12525980253E-10  0.17130000000E+03  0.17130000000E+03 0. -1.
       11    1    1    2    0    0  0.53485179912E-03  0.48082695665E-03  0.15372123549E+00  0.15372376759E+00  0.51109989000E-03 0.  1.
     -623    1    1    2    0    0 -0.47850589164E-03  0.90815191292E-03  0.32002928442E-04  0.17130000000E+03  0.17130000000E+03 0. -1.
      622    1    1    2    0    0 -0.56345907475E-04 -0.13889788696E-02  0.38462467289E+01  0.38462762293E+01  0.15000000000E-01 0.  1.
</event>
<event>
 5   0  0.2306700E+09  0.9118800E+02  0.7818608E-02  0.1180000E+00
       11   -1    0    0    0    0  0.00000000000E+00  0.00000000000E+00  0.39999999673E+01  0.40000000000E+01  0.51109989000E-03 0. -1.
     -623   -1    0    0    0    0  0.00000000000E+00  0.00000000000E+00  0.12525980253E-10  0.17130000000E+03  0.17130000000E+03 0. -1.
       11    1    1    2    0    0  0.23835041404E-03  0.15519057517E-03  0.56573837482E-02  0.56875398026E-02  0.51109989000E-03 0. -1.
     -623    1    1    2    0    0 -0.52039287708E-03  0.41432594590E-03  0.58340421778E-04  0.17130000000E+03  0.17130000000E+03 0. -1.
      622    1    1    2    0    0  0.28204246382E-03 -0.56951652169E-03  0.39942842492E+01  0.39943124649E+01  0.15000000000E-01 0. -1.
</event>
<event>
 5   0  0.2306700E+09  0.9118800E+02  0.7818608E-02  0.1180000E+00
       11   -1    0    0    0    0  0.00000000000E+00  0.00000000000E+00  0.39999999673E+01  0.40000000000E+01  0.51109989000E-03 0.  1.
     -623   -1    0    0    0    0  0.00000000000E+00  0.00000000000E+00  0.12525980253E-10  0.17130000000E+03  0.17130000000E+03 0. -1.
       11    1    1    2    0    0 -0.88711043192E-03  0.89556653804E-03  0.34059826466E-01  0.34086977078E-01  0.51109989000E-03 0.  1.
     -623    1    1    2    0    0 -0.22721137226E-03 -0.27850644617E-03  0.55689747988E-04  0.17130000000E+03  0.17130000000E+03 0. -1.
      622    1    1    2    0    0  0.11143218040E-02 -0.61706009202E-03  0.39658844489E+01  0.39659130203E+01  0.15000000000E-01 0.  1.
</event>
<event>
 5   0  0.2306700E+09  0.9118800E+02  0.7818608E-02  0.1180000E+00
       11   -1    0    0    0    0  0.00000000000E+00  0.00000000000E+00  0.39999999673E+01  0.40000000000E+01  0.51109989000E-03 0.  1.
     -623   -1    0    0    0    0  0.00000000000E+00  0.00000000000E+00  0.12525980253E-10  0.17130000000E+03  0.17130000000E+03 0. -1.
       11    1    1    2    0    0 -0.36731930034E-04  0.11780355988E-02  0.23170697239E+00  0.23171053363E+00  0.51109989000E-03 0.  1.
     -623    1    1    2    0    0  0.23365533942E-04 -0.51883104327E-04  0.33551423845E-04  0.17130000000E+03  0.17130000000E+03 0. -1.
      622    1    1    2    0    0  0.13366396061E-04 -0.11261524944E-02  0.37682594488E+01  0.37682894716E+01  0.15000000000E-01 0.  1.
</event>
<event>
 5   0  0.2306700E+09  0.9118800E+02  0.7818608E-02  0.1180000E+00
       11   -1    0    0    0    0  0.00000000000E+00  0.00000000000E+00  0.39999999673E+01  0.40000000000E+01  0.51109989000E-03 0. -1.
     -623   -1    0    0    0    0  0.00000000000E+00  0.00000000000E+00  0.12525980253E-10  0.17130000000E+03  0.17130000000E+03 0. -1.
       11    1    1    2    0    0 -0.19600610678E-02 -0.13899676083E-02  0.12771895936E+00  0.12774258355E+00  0.51109989000E-03 0. -1.
     -623    1    1    2    0    0 -0.11375385883E-02  0.46226582848E-03  0.53998985841E-04  0.17130000000E+03  0.17130000000E+03 0. -1.
      622    1    1    2    0    0  0.30975996558E-02  0.92770177989E-03  0.38722270081E+01  0.38722574111E+01  0.15000000000E-01 0. -1.
</event>
<event>
 5   0  0.2306700E+09  0.9118800E+02  0.7818608E-02  0.1180000E+00
       11   -1    0    0    0    0  0.00000000000E+00  0.00000000000E+00  0.39999999673E+01  0.40000000000E+01  0.51109989000E-03 0. -1.
     -623   -1    0    0    0    0  0.00000000000E+00  0.00000000000E+00  0.12525980253E-10  0.17130000000E+03  0.17130000000E+03 0. -1.
       11    1    1    2    0    0 -0.11204137767E-01 -0.14301572623E-01  0.32753372946E+00  0.32803760888E+00  0.51109989000E-03 0. -1.
     -623    1    1    2    0    0  0.36290249770E-03  0.64965164733E-03  0.57586977844E-03  0.17130000000E+03  0.17130000000E+03 0. -1.
      622    1    1    2    0    0  0.10841235269E-01  0.13651920976E-01  0.36718903681E+01  0.36719623885E+01  0.15000000000E-01 0. -1.
</event>
<event>
 5   0  0.2306700E+09  0.9118800E+02  0.7818608E-02  0.1180000E+00
       11   -1    0    0    0    0  0.00000000000E+00  0.00000000000E+00  0.39999999673E+01  0.40000000000E+01  0.51109989000E-03 0. -1.
     -623   -1    0    0    0    0  0.00000000000E+00  0.00000000000E+00  0.12525980253E-10  0.17130000000E+03  0.17130000000E+03 0.  1.
       11    1    1    2    0    0 -0.64050512481E-03  0.63217365907E-03  0.14637767171E-01  0.14674308848E-01  0.51109989000E-03 0. -1.
     -623    1    1    2    0    0  0.21054598100E-03  0.14323161780E-03  0.64836524316E-04  0.17130000000E+03  0.17130000000E+03 0.  1.
      622    1    1    2    0    0  0.42995914381E-03 -0.77540527687E-03  0.39852973637E+01  0.39853256910E+01  0.15000000000E-01 0. -1.
</event>
<event>
 5   0  0.2306700E+09  0.9118800E+02  0.7818608E-02  0.1180000E+00
       11   -1    0    0    0    0  0.00000000000E+00  0.00000000000E+00  0.39999999673E+01  0.40000000000E+01  0.51109989000E-03 0. -1.
     -623   -1    0    0    0    0  0.00000000000E+00  0.00000000000E+00  0.12525980253E-10  0.17130000000E+03  0.17130000000E+03 0.  1.
       11    1    1    2    0    0 -0.10576089350E-01  0.77825484037E-02  0.69059793013E-01  0.70298918609E-01  0.51109989000E-03 0. -1.
     -623    1    1    2    0    0  0.13587043469E-01 -0.12054900034E-01  0.12721649059E-02  0.17130000097E+03  0.17130000000E+03 0.  1.
      622    1    1    2    0    0 -0.30109541185E-02  0.42723516303E-02  0.39296680094E+01  0.39297001137E+01  0.15000000000E-01 0. -1.
</event>
<event>
 5   0  0.2306700E+09  0.9118800E+02  0.7818608E-02  0.1180000E+00
       11   -1    0    0    0    0  0.00000000000E+00  0.00000000000E+00  0.39999999673E+01  0.40000000000E+01  0.51109989000E-03 0. -1.
     -623   -1    0    0    0    0  0.00000000000E+00  0.00000000000E+00  0.12525980253E-10  0.17130000000E+03  0.17130000000E+03 0.  1.
       11    1    1    2    0    0 -0.32320543283E-02  0.58477104520E-03  0.11545155285E+00  0.11549939572E+00  0.51109989000E-03 0.  1.
     -623    1    1    2    0    0 -0.13898395252E-02 -0.16090522054E-02  0.79669499196E-04  0.17130000001E+03  0.17130000000E+03 0.  1.
      622    1    1    2    0    0  0.46218938544E-02  0.10242811613E-02  0.38844687479E+01  0.38845005939E+01  0.15000000000E-01 0. -1.
</event>
<event>
 5   0  0.2306700E+09  0.9118800E+02  0.7818608E-02  0.1180000E+00
       11   -1    0    0    0    0  0.00000000000E+00  0.00000000000E+00  0.39999999673E+01  0.40000000000E+01  0.51109989000E-03 0.  1.
     -623   -1    0    0    0    0  0.00000000000E+00  0.00000000000E+00  0.12525980253E-10  0.17130000000E+03  0.17130000000E+03 0.  1.
       11    1    1    2    0    0 -0.14967938726E-02  0.80594630614E-03  0.82090256144E-01  0.82109447192E-01  0.51109989000E-03 0.  1.
     -623    1    1    2    0    0 -0.69938656968E-03  0.89755440037E-04  0.48592331825E-04  0.17130000000E+03  0.17130000000E+03 0.  1.
      622    1    1    2    0    0  0.21961804419E-02 -0.89570174613E-03  0.39178611168E+01  0.39178905493E+01  0.15000000000E-01 0.  0.
</event>
<event>
 5   0  0.2306700E+09  0.9118800E+02  0.7818608E-02  0.1180000E+00
       11   -1    0    0    0    0  0.00000000000E+00  0.00000000000E+00  0.39999999673E+01  0.40000000000E+01  0.51109989000E-03 0. -1.
     -623   -1    0    0    0    0  0.00000000000E+00  0.00000000000E+00  0.12525980253E-10  0.17130000000E+03  0.17130000000E+03 0. -1.
       11    1    1    2    0    0 -0.56279783227E-03 -0.62278203136E-03  0.21889774124E+00  0.21889994733E+00  0.51109989000E-03 0. -1.
     -623    1    1    2    0    0  0.12214073595E-03  0.35740457528E-03  0.31962224643E-04  0.17130000000E+03  0.17130000000E+03 0. -1.
      622    1    1    2    0    0  0.44065709588E-03  0.26537745478E-03  0.37810702784E+01  0.37811000668E+01  0.15000000000E-01 0. -1.
</event>
<event>
 5   0  0.2306700E+09  0.9118800E+02  0.7818608E-02  0.1180000E+00
       11   -1    0    0    0    0  0.00000000000E+00  0.00000000000E+00  0.39999999673E+01  0.40000000000E+01  0.51109989000E-03 0.  1.
     -623   -1    0    0    0    0  0.00000000000E+00  0.00000000000E+00  0.12525980253E-10  0.17130000000E+03  0.17130000000E+03 0.  1.
       11    1    1    2    0    0 -0.10223539383E-04 -0.36703334692E-03  0.29305651655E+00  0.29305719225E+00  0.51109989000E-03 0.  1.
     -623    1    1    2    0    0 -0.96705260172E-03  0.74552793953E-03  0.31144145769E-04  0.17130000000E+03  0.17130000000E+03 0.  1.
      622    1    1    2    0    0  0.97727614111E-03 -0.37849459261E-03  0.37069123067E+01  0.37069428034E+01  0.15000000000E-01 0.  1.
</event>
<event>
 5   0  0.2306700E+09  0.9118800E+02  0.7818608E-02  0.1180000E+00
       11   -1    0    0    0    0  0.00000000000E+00  0.00000000000E+00  0.39999999673E+01  0.40000000000E+01  0.51109989000E-03 0. -1.
     -623   -1    0    0    0    0  0.00000000000E+00  0.00000000000E+00  0.12525980253E-10  0.17130000000E+03  0.17130000000E+03 0.  1.
       11    1    1    2    0    0 -0.17425062089E-02  0.65450469325E-03  0.47018690266E+00  0.47019086482E+00  0.51109989000E-03 0. -1.
     -623    1    1    2    0    0 -0.16811324781E-03  0.17373037978E-03  0.36415515614E-04  0.17130000000E+03  0.17130000000E+03 0.  1.
      622    1    1    2    0    0  0.19106194565E-02 -0.82823507286E-03  0.35297766454E+01  0.35298091313E+01  0.15000000000E-01 0. -1.
</event>
<event>
 5   0  0.2306700E+09  0.9118800E+02  0.7818608E-02  0.1180000E+00
       11   -1    0    0    0    0  0.00000000000E+00  0.00000000000E+00  0.39999999673E+01  0.40000000000E+01  0.51109989000E-03 0.  1.
     -623   -1    0    0    0    0  0.00000000000E+00  0.00000000000E+00  0.12525980253E-10  0.17130000000E+03  0.17130000000E+03 0.  1.
       11    1    1    2    0    0  0.21340598968E-01  0.18674609452E-02  0.24962930213E+00  0.25054731745E+00  0.51109989000E-03 0.  1.
     -623    1    1    2    0    0  0.23504299778E-03 -0.81054485890E-02  0.10154491837E-02  0.17130000019E+03  0.17130000000E+03 0.  1.
      622    1    1    2    0    0 -0.21575641965E-01  0.62379876437E-02  0.37493552160E+01  0.37494524875E+01  0.15000000000E-01 0.  1.
</event>
<event>
 5   0  0.2306700E+09  0.9118800E+02  0.7818608E-02  0.1180000E+00
       11   -1    0    0    0    0  0.00000000000E+00  0.00000000000E+00  0.39999999673E+01  0.40000000000E+01  0.51109989000E-03 0. -1.
     -623   -1    0    0    0    0  0.00000000000E+00  0.00000000000E+00  0.12525980253E-10  0.17130000000E+03  0.17130000000E+03 0.  1.
       11    1    1    2    0    0 -0.39171061172E-02  0.62266827173E-02  0.89657993565E+00  0.89661025955E+00  0.51109989000E-03 0. -1.
     -623    1    1    2    0    0 -0.48708170857E-02 -0.45696728152E-03  0.84418182498E-04  0.17130000007E+03  0.17130000000E+03 0.  1.
      622    1    1    2    0    0  0.87879232028E-02 -0.57697154357E-02  0.31033356135E+01  0.31033896706E+01  0.15000000000E-01 0. -1.
</event>
<event>
 5   0  0.2306700E+09  0.9118800E+02  0.7818608E-02  0.1180000E+00
       11   -1    0    0    0    0  0.00000000000E+00  0.00000000000E+00  0.39999999673E+01  0.40000000000E+01  0.51109989000E-03 0. -1.
     -623   -1    0    0    0    0  0.00000000000E+00  0.00000000000E+00  0.12525980253E-10  0.17130000000E+03  0.17130000000E+03 0.  1.
       11    1    1    2    0    0 -0.22120393987E-02  0.56985782714E-03  0.96743076734E-01  0.96771390273E-01  0.51109989000E-03 0. -1.
     -623    1    1    2    0    0 -0.31884133628E-03 -0.27830441275E-03  0.57935246416E-04  0.17130000000E+03  0.17130000000E+03 0.  1.
      622    1    1    2    0    0  0.25308807349E-02 -0.29155341451E-03  0.39031989538E+01  0.39032286076E+01  0.15000000000E-01 0. -1.
</event>
<event>
 5   0  0.2306700E+09  0.9118800E+02  0.7818608E-02  0.1180000E+00
       11   -1    0    0    0    0  0.00000000000E+00  0.00000000000E+00  0.39999999673E+01  0.40000000000E+01  0.51109989000E-03 0.  1.
     -623   -1    0    0    0    0  0.00000000000E+00  0.00000000000E+00  0.12525980253E-10  0.17130000000E+03  0.17130000000E+03 0.  1.
       11    1    1    2    0    0 -0.17134375876E-02 -0.98205711174E-03  0.10699953885E+00  0.10701898356E+00  0.51109989000E-03 0. -1.
     -623    1    1    2    0    0  0.13604413882E-03 -0.73002823323E-05  0.48755690646E-04  0.17130000000E+03  0.17130000000E+03 0.  1.
      622    1    1    2    0    0  0.15773934486E-02  0.98935739409E-03  0.38929516783E+01  0.38929810219E+01  0.15000000000E-01 0.  1.
</event>
<event>
 5   0  0.2306700E+09  0.9118800E+02  0.7818608E-02  0.1180000E+00
       11   -1    0    0    0    0  0.00000000000E+00  0.00000000000E+00  0.39999999673E+01  0.40000000000E+01  0.51109989000E-03 0.  1.
     -623   -1    0    0    0    0  0.00000000000E+00  0.00000000000E+00  0.12525980253E-10  0.17130000000E+03  0.17130000000E+03 0.  1.
       11    1    1    2    0    0 -0.37918174050E-02  0.37267697879E-02  0.39577894163E+00  0.39581498020E+00  0.51109989000E-03 0.  1.
     -623    1    1    2    0    0  0.19672152965E-02 -0.14802034646E-02  0.68399511133E-04  0.17130000002E+03  0.17130000000E+03 0.  1.
      622    1    1    2    0    0  0.18246021085E-02 -0.22465663232E-02  0.36041526262E+01  0.36041850021E+01  0.15000000000E-01 0.  1.
</event>
<event>
 5   0  0.2306700E+09  0.9118800E+02  0.7818608E-02  0.1180000E+00
       11   -1    0    0    0    0  0.00000000000E+00  0.00000000000E+00  0.39999999673E+01  0.40000000000E+01  0.51109989000E-03 0.  1.
     -623   -1    0    0    0    0  0.00000000000E+00  0.00000000000E+00  0.12525980253E-10  0.17130000000E+03  0.17130000000E+03 0. -1.
       11    1    1    2    0    0  0.26904386767E-03  0.78344697386E-02  0.12123451495E+00  0.12148876548E+00  0.51109989000E-03 0.  1.
     -623    1    1    2    0    0 -0.16774221902E-02 -0.47733882685E-02  0.28476261968E-03  0.17130000007E+03  0.17130000000E+03 0. -1.
      622    1    1    2    0    0  0.14083783229E-02 -0.30610814690E-02  0.38784806907E+01  0.38785111605E+01  0.15000000000E-01 0.  1.
</event>
<event>
 5   0  0.2306700E+09  0.9118800E+02  0.7818608E-02  0.1180000E+00
       11   -1    0    0    0    0  0.00000000000E+00  0.00000000000E+00  0.39999999673E+01  0.40000000000E+01  0.51109989000E-03 0. -1.
     -623   -1    0    0    0    0  0.00000000000E+00  0.00000000000E+00  0.12525980253E-10  0.17130000000E+03  0.17130000000E+03 0.  1.
       11    1    1    2    0    0  0.67317325246E-04  0.16336562394E-02  0.24375495626E-01  0.24435616923E-01  0.51109989000E-03 0. -1.
     -623    1    1    2    0    0 -0.11326429813E-04 -0.22321340984E-02  0.88446635253E-04  0.17130000001E+03  0.17130000000E+03 0.  1.
      622    1    1    2    0    0 -0.55990895427E-04  0.59847786011E-03  0.39755360271E+01  0.39755643705E+01  0.15000000000E-01 0. -1.
</event>
<event>
 5   0  0.2306700E+09  0.9118800E+02  0.7818608E-02  0.1180000E+00
       11   -1    0    0    0    0  0.00000000000E+00  0.00000000000E+00  0.39999999673E+01  0.40000000000E+01  0.51109989000E-03 0.  1.
     -623   -1    0    0    0    0  0.00000000000E+00  0.00000000000E+00  0.12525980253E-10  0.17130000000E+03  0.17130000000E+03 0. -1.
       11    1    1    2    0    0 -0.62010362417E-03  0.19072508323E-03  0.59394647191E-01  0.59400389246E-01  0.51109989000E-03 0.  1.
     -623    1    1    2    0    0  0.12767454673E-03  0.20968050577E-04  0.34294979643E-04  0.17130000000E+03  0.17130000000E+03 0. -1.
      622    1    1    2    0    0  0.49242907725E-03 -0.21169313384E-03  0.39405710312E+01  0.39405996167E+01  0.15000000000E-01 0.  1.
</event>
<event>
 5   0  0.2306700E+09  0.9118800E+02  0.7818608E-02  0.1180000E+00
       11   -1    0    0    0    0  0.00000000000E+00  0.00000000000E+00  0.39999999673E+01  0.40000000000E+01  0.51109989000E-03 0.  1.
     -623   -1    0    0    0    0  0.00000000000E+00  0.00000000000E+00  0.12525980253E-10  0.17130000000E+03  0.17130000000E+03 0.  1.
       11    1    1    2    0    0 -0.10724986729E-01 -0.68213110007E-02  0.15224216934E+00  0.15277269054E+00  0.51109989000E-03 0.  1.
     -623    1    1    2    0    0 -0.24465549799E-02  0.21108167589E-02  0.58519333275E-03  0.17130000003E+03  0.17130000000E+03 0.  1.
      622    1    1    2    0    0  0.13171541709E-01  0.47104942421E-02  0.38471726043E+01  0.38472272776E+01  0.15000000000E-01 0.  1.
</event>
<event>
 5   0  0.2306700E+09  0.9118800E+02  0.7818608E-02  0.1180000E+00
       11   -1    0    0    0    0  0.00000000000E+00  0.00000000000E+00  0.39999999673E+01  0.40000000000E+01  0.51109989000E-03 0. -1.
     -623   -1    0    0    0    0  0.00000000000E+00  0.00000000000E+00  0.12525980253E-10  0.17130000000E+03  0.17130000000E+03 0.  1.
       11    1    1    2    0    0 -0.51984449458E-02  0.20582793880E-02  0.92013425697E-01  0.92184554417E-01  0.51109989000E-03 0. -1.
     -623    1    1    2    0    0  0.23974568679E-03  0.86294540513E-03  0.20412509507E-03  0.17130000000E+03  0.17130000000E+03 0.  1.
      622    1    1    2    0    0  0.49586992590E-02 -0.29212247931E-02  0.39077824166E+01  0.39078154431E+01  0.15000000000E-01 0. -1.
</event>
<event>
 5   0  0.2306700E+09  0.9118800E+02  0.7818608E-02  0.1180000E+00
       11   -1    0    0    0    0  0.00000000000E+00  0.00000000000E+00  0.39999999673E+01  0.40000000000E+01  0.51109989000E-03 0.  1.
     -623   -1    0    0    0    0  0.00000000000E+00  0.00000000000E+00  0.12525980253E-10  0.17130000000E+03  0.17130000000E+03 0. -1.
       11    1    1    2    0    0  0.43224018592E-03 -0.48232046416E-02  0.89536855769E+00  0.89538179871E+00  0.51109989000E-03 0.  1.
     -623    1    1    2    0    0  0.44637221480E-03  0.30683715799E-03  0.52855196484E-04  0.17130000000E+03  0.17130000000E+03 0. -1.
      622    1    1    2    0    0 -0.87861240073E-03  0.45163674836E-02  0.31045785545E+01  0.31046182004E+01  0.15000000000E-01 0.  1.
</event>
<event>
 5   0  0.2306700E+09  0.9118800E+02  0.7818608E-02  0.1180000E+00
       11   -1    0    0    0    0  0.00000000000E+00  0.00000000000E+00  0.39999999673E+01  0.40000000000E+01  0.51109989000E-03 0. -1.
     -623   -1    0    0    0    0  0.00000000000E+00  0.00000000000E+00  0.12525980253E-10  0.17130000000E+03  0.17130000000E+03 0.  1.
       11    1    1    2    0    0  0.44794256183E-02  0.17457688009E-02  0.11914501833E+00  0.11924306931E+00  0.51109989000E-03 0. -1.
     -623    1    1    2    0    0 -0.80106403652E-02 -0.57742926018E-03  0.12897842737E-03  0.17130000019E+03  0.17130000000E+03 0.  1.
      622    1    1    2    0    0  0.35312147500E-02 -0.11683395405E-02  0.38807259722E+01  0.38807567439E+01  0.15000000000E-01 0. -1.
</event>
<event>
 5   0  0.2306700E+09  0.9118800E+02  0.7818608E-02  0.1180000E+00
       11   -1    0    0    0    0  0.00000000000E+00  0.00000000000E+00  0.39999999673E+01  0.40000000000E+01  0.51109989000E-03 0.  1.
     -623   -1    0    0    0    0  0.00000000000E+00  0.00000000000E+00  0.12525980253E-10  0.17130000000E+03  0.17130000000E+03 0.  1.
       11    1    1    2    0    0  0.69263848822E-02  0.46853331569E-02  0.24406580026E+00  0.24420954779E+00  0.51109989000E-03 0.  1.
     -623    1    1    2    0    0 -0.10662144896E-02  0.32386366810E-02  0.18663373766E-03  0.17130000003E+03  0.17130000000E+03 0.  1.
      622    1    1    2    0    0 -0.58601703926E-02 -0.79239698378E-02  0.37557475334E+01  0.37557904182E+01  0.15000000000E-01 0.  1.
</event>
<event>
 5   0  0.2306700E+09  0.9118800E+02  0.7818608E-02  0.1180000E+00
       11   -1    0    0    0    0  0.00000000000E+00  0.00000000000E+00  0.39999999673E+01  0.40000000000E+01  0.51109989000E-03 0. -1.
     -623   -1    0    0    0    0  0.00000000000E+00  0.00000000000E+00  0.12525980253E-10  0.17130000000E+03  0.17130000000E+03 0. -1.
       11    1    1    2    0    0  0.54713542834E-02 -0.24810090033E-01  0.57522944472E+00  0.57579045805E+00  0.51109989000E-03 0. -1.
     -623    1    1    2    0    0  0.69667182169E-03 -0.44892998449E-03  0.69255897849E-03  0.17130000000E+03  0.17130000000E+03 0. -1.
      622    1    1    2    0    0 -0.61680261051E-02  0.25259020017E-01  0.34240779637E+01  0.34242095385E+01  0.15000000000E-01 0. -1.
</event>
<event>
 5   0  0.2306700E+09  0.9118800E+02  0.7818608E-02  0.1180000E+00
       11   -1    0    0    0    0  0.00000000000E+00  0.00000000000E+00  0.39999999673E+01  0.40000000000E+01  0.51109989000E-03 0. -1.
     -623   -1    0    0    0    0  0.00000000000E+00  0.00000000000E+00  0.12525980253E-10  0.17130000000E+03  0.17130000000E+03 0. -1.
       11    1    1    2    0    0 -0.44781264033E-03  0.84180539745E-03  0.52055474997E-01  0.52066715585E-01  0.51109989000E-03 0. -1.
     -623    1    1    2    0    0 -0.30415867654E-03 -0.27778610033E-03  0.39816378085E-04  0.17130000000E+03  0.17130000000E+03 0. -1.
      622    1    1    2    0    0  0.75197131688E-03 -0.56401929712E-03  0.39479046760E+01  0.39479332839E+01  0.15000000000E-01 0. -1.
</event>
<event>
 5   0  0.2306700E+09  0.9118800E+02  0.7818608E-02  0.1180000E+00
       11   -1    0    0    0    0  0.00000000000E+00  0.00000000000E+00  0.39999999673E+01  0.40000000000E+01  0.51109989000E-03 0.  1.
     -623   -1    0    0    0    0  0.00000000000E+00  0.00000000000E+00  0.12525980253E-10  0.17130000000E+03  0.17130000000E+03 0.  1.
       11    1    1    2    0    0 -0.12115723679E-02  0.85510842825E-03  0.38356118487E-01  0.38388177406E-01  0.51109989000E-03 0.  1.
     -623    1    1    2    0    0  0.28215509072E-04 -0.26489814530E-02  0.61027295396E-04  0.17130000002E+03  0.17130000000E+03 0.  1.
      622    1    1    2    0    0  0.11833568588E-02  0.17938730248E-02  0.39615828216E+01  0.39616118021E+01  0.15000000000E-01 0.  1.
</event>
<event>
 5   0  0.2306700E+09  0.9118800E+02  0.7818608E-02  0.1180000E+00
       11   -1    0    0    0    0  0.00000000000E+00  0.00000000000E+00  0.39999999673E+01  0.40000000000E+01  0.51109989000E-03 0.  1.
     -623   -1    0    0    0    0  0.00000000000E+00  0.00000000000E+00  0.12525980253E-10  0.17130000000E+03  0.17130000000E+03 0. -1.
       11    1    1    2    0    0  0.30082913765E-03 -0.51272165843E-03  0.40722739419E-01  0.40730284902E-01  0.51109989000E-03 0.  1.
     -623    1    1    2    0    0 -0.96085538405E-04 -0.10554837636E-03  0.35980906743E-04  0.17130000000E+03  0.17130000000E+03 0. -1.
      622    1    1    2    0    0 -0.20474359925E-03  0.61827003479E-03  0.39592412470E+01  0.39592697150E+01  0.15000000000E-01 0.  1.
</event>
<event>
 5   0  0.2306700E+09  0.9118800E+02  0.7818608E-02  0.1180000E+00
       11   -1    0    0    0    0  0.00000000000E+00  0.00000000000E+00  0.39999999673E+01  0.40000000000E+01  0.51109989000E-03 0.  1.
     -623   -1    0    0    0    0  0.00000000000E+00  0.00000000000E+00  0.12525980253E-10  0.17130000000E+03  0.17130000000E+03 0. -1.
       11    1    1    2    0    0  0.56785839055E-02  0.14620035944E-01  0.46709958606E+00  0.46736310968E+00  0.51109989000E-03 0.  1.
     -623    1    1    2    0    0 -0.24236890613E-02 -0.11764243288E-04  0.32705869310E-03  0.17130000002E+03  0.17130000000E+03 0. -1.
      622    1    1    2    0    0 -0.32548948442E-02 -0.14608271700E-01  0.35325733226E+01  0.35326368729E+01  0.15000000000E-01 0.  1.
</event>
<event>
 5   0  0.2306700E+09  0.9118800E+02  0.7818608E-02  0.1180000E+00
       11   -1    0    0    0    0  0.00000000000E+00  0.00000000000E+00  0.39999999673E+01  0.40000000000E+01  0.51109989000E-03 0. -1.
     -623   -1    0    0    0    0  0.00000000000E+00  0.00000000000E+00  0.12525980253E-10  0.17130000000E+03  0.17130000000E+03 0.  1.
       11    1    1    2    0    0 -0.25989320649E-02  0.47115614522E-03  0.34674419610E-01  0.34778628990E-01  0.51109989000E-03 0. -1.
     -623    1    1    2    0    0 -0.36116655497E-03 -0.98621259287E-04  0.13367137175E-03  0.17130000000E+03  0.17130000000E+03 0.  1.
      622    1    1    2    0    0  0.29600986199E-02 -0.37253488595E-03  0.39651918760E+01  0.39652213701E+01  0.15000000000E-01 0. -1.
</event>
<event>
 5   0  0.2306700E+09  0.9118800E+02  0.7818608E-02  0.1180000E+00
       11   -1    0    0    0    0  0.00000000000E+00  0.00000000000E+00  0.39999999673E+01  0.40000000000E+01  0.51109989000E-03 0. -1.
     -623   -1    0    0    0    0  0.00000000000E+00  0.00000000000E+00  0.12525980253E-10  0.17130000000E+03  0.17130000000E+03 0. -1.
       11    1    1    2    0    0 -0.39685067019E-02 -0.25149625513E-02  0.13907783808E+00  0.13915811277E+00  0.51109989000E-03 0. -1.
     -623    1    1    2    0    0  0.40427312917E-03 -0.22003800439E-03  0.11199548965E-03  0.17130000000E+03  0.17130000000E+03 0. -1.
      622    1    1    2    0    0  0.35642335728E-02  0.27350005557E-02  0.38608101338E+01  0.38608418866E+01  0.15000000000E-01 0. -1.
</event>
<event>
 5   0  0.2306700E+09  0.9118800E+02  0.7818608E-02  0.1180000E+00
       11   -1    0    0    0    0  0.00000000000E+00  0.00000000000E+00  0.39999999673E+01  0.40000000000E+01  0.51109989000E-03 0. -1.
     -623   -1    0    0    0    0  0.00000000000E+00  0.00000000000E+00  0.12525980253E-10  0.17130000000E+03  0.17130000000E+03 0.  1.
       11    1    1    2    0    0  0.26473345463E-02 -0.42971746829E-02  0.12733619568E+00  0.12743720824E+00  0.51109989000E-03 0. -1.
     -623    1    1    2    0    0 -0.27049484106E-02  0.37560230507E-03  0.13203842200E-03  0.17130000002E+03  0.17130000000E+03 0.  1.
      622    1    1    2    0    0  0.57613866425E-04  0.39215723776E-02  0.38725317364E+01  0.38725627730E+01  0.15000000000E-01 0. -1.
</event>
<event>
 5   0  0.2306700E+09  0.9118800E+02  0.7818608E-02  0.1180000E+00
       11   -1    0    0    0    0  0.00000000000E+00  0.00000000000E+00  0.39999999673E+01  0.40000000000E+01  0.51109989000E-03 0.  1.
     -623   -1    0    0    0    0  0.00000000000E+00  0.00000000000E+00  0.12525980253E-10  0.17130000000E+03  0.17130000000E+03 0.  1.
       11    1    1    2    0    0  0.36745937568E-02  0.77072063315E-03  0.17633831432E+00  0.17637902078E+00  0.51109989000E-03 0.  1.
     -623    1    1    2    0    0 -0.43610499311E-02 -0.39577747472E-02  0.71587412006E-04  0.17130000010E+03  0.17130000000E+03 0.  1.
      622    1    1    2    0    0  0.68645617436E-03  0.31870541140E-02  0.38235900656E+01  0.38236208780E+01  0.15000000000E-01 0.  1.
</event>
<event>
 5   0  0.2306700E+09  0.9118800E+02  0.7818608E-02  0.1180000E+00
       11   -1    0    0    0    0  0.00000000000E+00  0.00000000000E+00  0.39999999673E+01  0.40000000000E+01  0.51109989000E-03 0. -1.
     -623   -1    0    0    0    0  0.00000000000E+00  0.00000000000E+00  0.12525980253E-10  0.17130000000E+03  0.17130000000E+03 0. -1.
       11    1    1    2    0    0  0.39793366585E-03 -0.33817520871E-04  0.27898115293E-01  0.27905654531E-01  0.51109989000E-03 0. -1.
     -623    1    1    2    0    0 -0.36865218963E-03 -0.12352933976E-03  0.35832958657E-04  0.17130000000E+03  0.17130000000E+03 0. -1.
      622    1    1    2    0    0 -0.29281475442E-04  0.15734686089E-03  0.39720660275E+01  0.39720943534E+01  0.15000000000E-01 0. -1.
</event>
<event>
 5   0  0.2306700E+09  0.9118800E+02  0.7818608E-02  0.1180000E+00
       11   -1    0    0    0    0  0.00000000000E+00  0.00000000000E+00  0.39999999673E+01  0.40000000000E+01  0.51109989000E-03 0.  1.
     -623   -1    0    0    0    0  0.00000000000E+00  0.00000000000E+00  0.12525980253E-10  0.17130000000E+03  0.17130000000E+03 0. -1.
       11    1    1    2    0    0 -0.89920373276E-03  0.19466688268E-02  0.23243138356E+00  0.23244183654E+00  0.51109989000E-03 0.  1.
     -623    1    1    2    0    0  0.15134869558E-02 -0.37287935241E-02  0.40799491882E-04  0.17130000005E+03  0.17130000000E+03 0. -1.
      622    1    1    2    0    0 -0.61428322576E-03  0.17821247040E-02  0.37675277916E+01  0.37675581235E+01  0.15000000000E-01 0.  1.
</event>
<event>
 5   0  0.2306700E+09  0.9118800E+02  0.7818608E-02  0.1180000E+00
       11   -1    0    0    0    0  0.00000000000E+00  0.00000000000E+00  0.39999999673E+01  0.40000000000E+01  0.51109989000E-03 0.  1.
     -623   -1    0    0    0    0  0.00000000000E+00  0.00000000000E+00  0.12525980253E-10  0.17130000000E+03  0.17130000000E+03 0. -1.
       11    1    1    2    0    0 -0.50460330806E-02 -0.44276198234E-02  0.66126932301E+00  0.66130359522E+00  0.51109989000E-03 0.  1.
     -623    1    1    2    0    0  0.74931306295E-03 -0.10428503099E-02  0.75186949697E-04  0.17130000000E+03  0.17130000000E+03 0. -1.
      622    1    1    2    0    0  0.42967200173E-02  0.54704701337E-02  0.33386554593E+01  0.33386964019E+01  0.15000000000E-01 0.  1.
</event>
<event>
 5   0  0.2306700E+09  0.9118800E+02  0.7818608E-02  0.1180000E+00
       11   -1    0    0    0    0  0.00000000000E+00  0.00000000000E+00  0.39999999673E+01  0.40000000000E+01  0.51109989000E-03 0. -1.
     -623   -1    0    0    0    0  0.00000000000E+00  0.00000000000E+00  0.12525980253E-10  0.17130000000E+03  0.17130000000E+03 0.  1.
       11    1    1    2    0    0  0.12521954087E-02  0.39581894690E-02  0.45099121994E+00  0.45101061732E+00  0.51109989000E-03 0. -1.
     -623    1    1    2    0    0 -0.19744423937E-02 -0.11843189146E-01  0.60317718089E-04  0.17130000042E+03  0.17130000000E+03 0.  1.
      622    1    1    2    0    0  0.72224698420E-03  0.78849996719E-02  0.35489484281E+01  0.35489889603E+01  0.15000000000E-01 0. -1.
</event>
<event>
 5   0  0.2306700E+09  0.9118800E+02  0.7818608E-02  0.1180000E+00
       11   -1    0    0    0    0  0.00000000000E+00  0.00000000000E+00  0.39999999673E+01  0.40000000000E+01  0.51109989000E-03 0.  1.
     -623   -1    0    0    0    0  0.00000000000E+00  0.00000000000E+00  0.12525980253E-10  0.17130000000E+03  0.17130000000E+03 0.  1.
       11    1    1    2    0    0  0.42872518883E-03 -0.74056931403E-04  0.73713982801E-01  0.73717038540E-01  0.51109989000E-03 0.  1.
     -623    1    1    2    0    0 -0.84754860170E-03  0.16787764153E-02  0.32036859657E-04  0.17130000001E+03  0.17130000000E+03 0.  1.
      622    1    1    2    0    0  0.41882341287E-03 -0.16047194839E-02  0.39262539477E+01  0.39262829511E+01  0.15000000000E-01 0.  1.
</event>
<event>
 5   0  0.2306700E+09  0.9118800E+02  0.7818608E-02  0.1180000E+00
       11   -1    0    0    0    0  0.00000000000E+00  0.00000000000E+00  0.39999999673E+01  0.40000000000E+01  0.51109989000E-03 0.  1.
     -623   -1    0    0    0    0  0.00000000000E+00  0.00000000000E+00  0.12525980253E-10  0.17130000000E+03  0.17130000000E+03 0.  1.
       11    1    1    2    0    0 -0.10947208779E-02 -0.18863955526E-03  0.17625236841E-01  0.17667602944E-01  0.51109989000E-03 0. -1.
     -623    1    1    2    0    0  0.94022867767E-03  0.27349549823E-03  0.70590053998E-04  0.17130000000E+03  0.17130000000E+03 0.  1.
      622    1    1    2    0    0  0.15449220022E-03 -0.84855942967E-04  0.39823041405E+01  0.39823323942E+01  0.15000000000E-01 0.  1.
</event>
<event>
 5   0  0.2306700E+09  0.9118800E+02  0.7818608E-02  0.1180000E+00
       11   -1    0    0    0    0  0.00000000000E+00  0.00000000000E+00  0.39999999673E+01  0.40000000000E+01  0.51109989000E-03 0. -1.
     -623   -1    0    0    0    0  0.00000000000E+00  0.00000000000E+00  0.12525980253E-10  0.17130000000E+03  0.17130000000E+03 0. -1.
       11    1    1    2    0    0  0.11062926302E-02  0.12743724331E-02  0.35484136915E+00  0.35484575014E+00  0.51109989000E-03 0. -1.
     -623    1    1    2    0    0 -0.12278209629E-03  0.96680744265E-03  0.36035817679E-04  0.17130000000E+03  0.17130000000E+03 0. -1.
      622    1    1    2    0    0 -0.98351053369E-03 -0.22411798777E-02  0.36451225707E+01  0.36451542554E+01  0.15000000000E-01 0. -1.
</event>
<event>
 5   0  0.2306700E+09  0.9118800E+02  0.7818608E-02  0.1180000E+00
       11   -1    0    0    0    0  0.00000000000E+00  0.00000000000E+00  0.39999999673E+01  0.40000000000E+01  0.51109989000E-03 0.  1.
     -623   -1    0    0    0    0  0.00000000000E+00  0.00000000000E+00  0.12525980253E-10  0.17130000000E+03  0.17130000000E+03 0. -1.
       11    1    1    2    0    0  0.73628573606E-03 -0.61600980670E-04  0.30747436716E-01  0.30760559148E-01  0.51109989000E-03 0.  1.
     -623    1    1    2    0    0  0.58162294978E-07  0.29033553268E-04  0.41501295992E-04  0.17130000000E+03  0.17130000000E+03 0. -1.
      622    1    1    2    0    0 -0.73634389836E-03  0.32567427380E-04  0.39692110323E+01  0.39692394438E+01  0.15000000000E-01 0.  1.
</event>
<event>
 5   0  0.2306700E+09  0.9118800E+02  0.7818608E-02  0.1180000E+00
       11   -1    0    0    0    0  0.00000000000E+00  0.00000000000E+00  0.39999999673E+01  0.40000000000E+01  0.51109989000E-03 0.  1.
     -623   -1    0    0    0    0  0.00000000000E+00  0.00000000000E+00  0.12525980253E-10  0.17130000000E+03  0.17130000000E+03 0.  1.
       11    1    1    2    0    0 -0.38044952471E-02 -0.13003961399E-02  0.69304427411E-01  0.69422835540E-01  0.51109989000E-03 0.  1.
     -623    1    1    2    0    0  0.54001100743E-02  0.26225641250E-03  0.14754369465E-03  0.17130000009E+03  0.17130000000E+03 0.  1.
      622    1    1    2    0    0 -0.15956148272E-02  0.10381397274E-02  0.39305479963E+01  0.39305770791E+01  0.15000000000E-01 0.  1.
</event>
<event>
 5   0  0.2306700E+09  0.9118800E+02  0.7818608E-02  0.1180000E+00
       11   -1    0    0    0    0  0.00000000000E+00  0.00000000000E+00  0.39999999673E+01  0.40000000000E+01  0.51109989000E-03 0. -1.
     -623   -1    0    0    0    0  0.00000000000E+00  0.00000000000E+00  0.12525980253E-10  0.17130000000E+03  0.17130000000E+03 0.  1.
       11    1    1    2    0    0  0.17688621180E-02  0.26815905209E-03  0.10185054260E+01  0.10185071255E+01  0.51109989000E-03 0. -1.
     -623    1    1    2    0    0 -0.10185519896E-03  0.13023223487E-03  0.39892658647E-04  0.17130000000E+03  0.17130000000E+03 0.  1.
      622    1    1    2    0    0 -0.16670069190E-02 -0.39839128692E-03  0.29814546476E+01  0.29814928732E+01  0.15000000000E-01 0. -1.
</event>
<event>
 5   0  0.2306700E+09  0.9118800E+02  0.7818608E-02  0.1180000E+00
       11   -1    0    0    0    0  0.00000000000E+00  0.00000000000E+00  0.39999999673E+01  0.40000000000E+01  0.51109989000E-03 0.  1.
     -623   -1    0    0    0    0  0.00000000000E+00  0.00000000000E+00  0.12525980253E-10  0.17130000000E+03  0.17130000000E+03 0.  1.
       11    1    1    2    0    0  0.71527116067E-03  0.58301640433E-03  0.49433526707E-01  0.49444780358E-01  0.51109989000E-03 0.  1.
     -623    1    1    2    0    0  0.93627410979E-04 -0.40601364498E-04  0.39818209346E-04  0.17130000000E+03  0.17130000000E+03 0.  1.
      622    1    1    2    0    0 -0.80889857165E-03 -0.54241503984E-03  0.39505266224E+01  0.39505552196E+01  0.15000000000E-01 0.  1.
</event>
<event>
 5   0  0.2306700E+09  0.9118800E+02  0.7818608E-02  0.1180000E+00
       11   -1    0    0    0    0  0.00000000000E+00  0.00000000000E+00  0.39999999673E+01  0.40000000000E+01  0.51109989000E-03 0.  1.
     -623   -1    0    0    0    0  0.00000000000E+00  0.00000000000E+00  0.12525980253E-10  0.17130000000E+03  0.17130000000E+03 0. -1.
       11    1    1    2    0    0  0.70593514101E-02  0.21933351600E-02  0.70026797948E+00  0.70030718222E+00  0.51109989000E-03 0.  1.
     -623    1    1    2    0    0 -0.83973920476E-05  0.11925181099E-03  0.81608324208E-04  0.17130000000E+03  0.17130000000E+03 0. -1.
      622    1    1    2    0    0 -0.70509540181E-02 -0.23125869709E-02  0.32996503796E+01  0.32996928177E+01  0.15000000000E-01 0.  1.
</event>
<event>
 5   0  0.2306700E+09  0.9118800E+02  0.7818608E-02  0.1180000E+00
       11   -1    0    0    0    0  0.00000000000E+00  0.00000000000E+00  0.39999999673E+01  0.40000000000E+01  0.51109989000E-03 0.  1.
     -623   -1    0    0    0    0  0.00000000000E+00  0.00000000000E+00  0.12525980253E-10  0.17130000000E+03  0.17130000000E+03 0. -1.
       11    1    1    2    0    0 -0.12455973003E-03  0.26078817942E-02  0.37335579805E-01  0.37430245851E-01  0.51109989000E-03 0.  1.
     -623    1    1    2    0    0  0.41270604560E-03 -0.14283876708E-03  0.12380198768E-03  0.17130000000E+03  0.17130000000E+03 0. -1.
      622    1    1    2    0    0 -0.28814631557E-03 -0.24650430271E-02  0.39625405856E+01  0.39625697535E+01  0.15000000000E-01 0.  1.
</event>
<event>
 5   0  0.2306700E+09  0.9118800E+02  0.7818608E-02  0.1180000E+00
       11   -1    0    0    0    0  0.00000000000E+00  0.00000000000E+00  0.39999999673E+01  0.40000000000E+01  0.51109989000E-03 0. -1.
     -623   -1    0    0    0    0  0.00000000000E+00  0.00000000000E+00  0.12525980253E-10  0.17130000000E+03  0.17130000000E+03 0. -1.
       11    1    1    2    0    0 -0.51952991005E-03 -0.16733205730E-02  0.64501266572E-01  0.64527083659E-01  0.51109989000E-03 0. -1.
     -623    1    1    2    0    0  0.33386166497E-01  0.18325385600E-02  0.19488173347E-03  0.17130000326E+03  0.17130000000E+03 0. -1.
      622    1    1    2    0    0 -0.32866636607E-01 -0.15921798797E-03  0.39353038214E+01  0.39354696553E+01  0.15000000000E-01 0. -1.
</event>
<event>
 5   0  0.2306700E+09  0.9118800E+02  0.7818608E-02  0.1180000E+00
       11   -1    0    0    0    0  0.00000000000E+00  0.00000000000E+00  0.39999999673E+01  0.40000000000E+01  0.51109989000E-03 0. -1.
     -623   -1    0    0    0    0  0.00000000000E+00  0.00000000000E+00  0.12525980253E-10  0.17130000000E+03  0.17130000000E+03 0. -1.
       11    1    1    2    0    0  0.36527360831E-02 -0.42024834184E-02  0.57159883867E+00  0.57162618636E+00  0.51109989000E-03 0. -1.
     -623    1    1    2    0    0 -0.15683733084E-02  0.28298036084E-03  0.63011172061E-04  0.17130000001E+03  0.17130000000E+03 0. -1.
      622    1    1    2    0    0 -0.20843627717E-02  0.39195030570E-02  0.34283381252E+01  0.34283738139E+01  0.15000000000E-01 0. -1.
</event>
<event>
 5   0  0.2306700E+09  0.9118800E+02  0.7818608E-02  0.1180000E+00
       11   -1    0    0    0    0  0.00000000000E+00  0.00000000000E+00  0.39999999673E+01  0.40000000000E+01  0.51109989000E-03 0. -1.
     -623   -1    0    0    0    0  0.00000000000E+00  0.00000000000E+00  0.12525980253E-10  0.17130000000E+03  0.17130000000E+03 0. -1.
       11    1    1    2    0    0  0.93298075923E-03 -0.54794632763E-03  0.19119009660E-01  0.19156420605E-01  0.51109989000E-03 0.  1.
     -623    1    1    2    0    0 -0.95040063839E-03  0.67296006580E-03  0.65644718763E-04  0.17130000000E+03  0.17130000000E+03 0. -1.
      622    1    1    2    0    0  0.17419879157E-04 -0.12501373817E-03  0.39808153130E+01  0.39808435754E+01  0.15000000000E-01 0. -1.
</event>
<event>
 5   0  0.2306700E+09  0.9118800E+02  0.7818608E-02  0.1180000E+00
       11   -1    0    0    0    0  0.00000000000E+00  0.00000000000E+00  0.39999999673E+01  0.40000000000E+01  0.51109989000E-03 0.  1.
     -623   -1    0    0    0    0  0.00000000000E+00  0.00000000000E+00  0.12525980253E-10  0.17130000000E+03  0.17130000000E+03 0. -1.
       11    1    1    2    0    0  0.95335174394E-03 -0.17506540139E-03  0.17037494581E-01  0.17072696637E-01  0.51109989000E-03 0.  1.
     -623    1    1    2    0    0 -0.16156292101E-02  0.39887009229E-03  0.63484518099E-04  0.17130000001E+03  0.17130000000E+03 0. -1.
      622    1    1    2    0    0  0.66227746613E-03 -0.22380469090E-03  0.39828989883E+01  0.39829272953E+01  0.15000000000E-01 0.  1.
</event>
<event>
 5   0  0.2306700E+09  0.9118800E+02  0.7818608E-02  0.1180000E+00
       11   -1    0    0    0    0  0.00000000000E+00  0.00000000000E+00  0.39999999673E+01  0.40000000000E+01  0.51109989000E-03 0. -1.
     -623   -1    0    0    0    0  0.00000000000E+00  0.00000000000E+00  0.12525980253E-10  0.17130000000E+03  0.17130000000E+03 0. -1.
       11    1    1    2    0    0 -0.31040782755E-03  0.11218839478E-02  0.90590714101E-03  0.15610469107E-02  0.51109989000E-03 0. -1.
     -623    1    1    2    0    0 -0.31073667362E-03  0.78802560872E-03  0.68375106526E-03  0.17130000000E+03  0.17130000000E+03 0. -1.
      622    1    1    2    0    0  0.62114450120E-03 -0.19099095566E-02  0.39984103096E+01  0.39984389501E+01  0.15000000000E-01 0. -1.
</event>
<event>
 5   0  0.2306700E+09  0.9118800E+02  0.7818608E-02  0.1180000E+00
       11   -1    0    0    0    0  0.00000000000E+00  0.00000000000E+00  0.39999999673E+01  0.40000000000E+01  0.51109989000E-03 0.  1.
     -623   -1    0    0    0    0  0.00000000000E+00  0.00000000000E+00  0.12525980253E-10  0.17130000000E+03  0.17130000000E+03 0.  1.
       11    1    1    2    0    0  0.23620507673E-03 -0.17145746961E-04  0.54485717387E-02  0.54776129750E-02  0.51109989000E-03 0.  1.
     -623    1    1    2    0    0 -0.42952640859E-03  0.20556079853E-03  0.57182055893E-04  0.17130000000E+03  0.17130000000E+03 0.  1.
      622    1    1    2    0    0  0.19332133191E-03 -0.18841505160E-03  0.39944942141E+01  0.39945223869E+01  0.15000000000E-01 0.  1.
</event>
<event>
 5   0  0.2306700E+09  0.9118800E+02  0.7818608E-02  0.1180000E+00
       11   -1    0    0    0    0  0.00000000000E+00  0.00000000000E+00  0.39999999673E+01  0.40000000000E+01  0.51109989000E-03 0.  1.
     -623   -1    0    0    0    0  0.00000000000E+00  0.00000000000E+00  0.12525980253E-10  0.17130000000E+03  0.17130000000E+03 0.  1.
       11    1    1    2    0    0 -0.52066722409E-03  0.28025906070E-02  0.28096846012E-01  0.28245700335E-01  0.51109989000E-03 0.  1.
     -623    1    1    2    0    0 -0.96026793165E-03  0.28227624171E-02  0.18143267726E-03  0.17130000003E+03  0.17130000000E+03 0.  1.
      622    1    1    2    0    0  0.14809351557E-02 -0.56253530239E-02  0.39717216883E+01  0.39717542733E+01  0.15000000000E-01 0.  1.
</event>
<event>
 5   0  0.2306700E+09  0.9118800E+02  0.7818608E-02  0.1180000E+00
       11   -1    0    0    0    0  0.00000000000E+00  0.00000000000E+00  0.39999999673E+01  0.40000000000E+01  0.51109989000E-03 0.  1.
     -623   -1    0    0    0    0  0.00000000000E+00  0.00000000000E+00  0.12525980253E-10  0.17130000000E+03  0.17130000000E+03 0. -1.
       11    1    1    2    0    0  0.51943704548E-02 -0.81550014321E-02  0.10855133565E+01  0.10855565365E+01  0.51109989000E-03 0.  1.
     -623    1    1    2    0    0  0.12310191650E-03 -0.55979585559E-04  0.98166287511E-04  0.17130000000E+03  0.17130000000E+03 0. -1.
      622    1    1    2    0    0 -0.53174723714E-02  0.82109810176E-02  0.29143884446E+01  0.29144434634E+01  0.15000000000E-01 0.  1.
</event>
<event>
 5   0  0.2306700E+09  0.9118800E+02  0.7818608E-02  0.1180000E+00
       11   -1    0    0    0    0  0.00000000000E+00  0.00000000000E+00  0.39999999673E+01  0.40000000000E+01  0.51109989000E-03 0. -1.
     -623   -1    0    0    0    0  0.00000000000E+00  0.00000000000E+00  0.12525980253E-10  0.17130000000E+03  0.17130000000E+03 0.  1.
       11    1    1    2    0    0  0.71884329880E-03  0.18228440481E-02  0.10708862700E+01  0.10708881847E+01  0.51109989000E-03 0. -1.
     -623    1    1    2    0    0 -0.11590200328E-03  0.57890761121E-04  0.40955708536E-04  0.17130000000E+03  0.17130000000E+03 0.  1.
      622    1    1    2    0    0 -0.60294129567E-03 -0.18807348091E-02  0.29290727365E+01  0.29291118102E+01  0.15000000000E-01 0. -1.
</event>
<event>
 5   0  0.2306700E+09  0.9118800E+02  0.7818608E-02  0.1180000E+00
       11   -1    0    0    0    0  0.00000000000E+00  0.00000000000E+00  0.39999999673E+01  0.40000000000E+01  0.51109989000E-03 0.  1.
     -623   -1    0    0    0    0  0.00000000000E+00  0.00000000000E+00  0.12525980253E-10  0.17130000000E+03  0.17130000000E+03 0. -1.
       11    1    1    2    0    0 -0.13374227133E-02 -0.28183982731E-02  0.16232448708E-01  0.16537402532E-01  0.51109989000E-03 0.  1.
     -623    1    1    2    0    0  0.31858663009E-02  0.54609398276E-02  0.33458542147E-03  0.17130000012E+03  0.17130000000E+03 0. -1.
      622    1    1    2    0    0 -0.18484435882E-02 -0.26425415555E-02  0.39834329339E+01  0.39834624811E+01  0.15000000000E-01 0.  1.
</event>
<event>
 5   0  0.2306700E+09  0.9118800E+02  0.7818608E-02  0.1180000E+00
       11   -1    0    0    0    0  0.00000000000E+00  0.00000000000E+00  0.39999999673E+01  0.40000000000E+01  0.51109989000E-03 0. -1.
     -623   -1    0    0    0    0  0.00000000000E+00  0.00000000000E+00  0.12525980253E-10  0.17130000000E+03  0.17130000000E+03 0.  1.
       11    1    1    2    0    0 -0.46683632666E-02 -0.40204254393E-02  0.53349707981E+00  0.53353289760E+00  0.51109989000E-03 0. -1.
     -623    1    1    2    0    0 -0.18065007745E-04 -0.61956949555E-03  0.74513567980E-04  0.17130000000E+03  0.17130000000E+03 0.  1.
      622    1    1    2    0    0  0.46864282743E-02  0.46399949346E-02  0.34664283723E+01  0.34664670996E+01  0.15000000000E-01 0. -1.
</event>
<event>
 5   0  0.2306700E+09  0.9118800E+02  0.7818608E-02  0.1180000E+00
       11   -1    0    0    0    0  0.00000000000E+00  0.00000000000E+00  0.39999999673E+01  0.40000000000E+01  0.51109989000E-03 0.  1.
     -623   -1    0    0    0    0  0.00000000000E+00  0.00000000000E+00  0.12525980253E-10  0.17130000000E+03  0.17130000000E+03 0. -1.
       11    1    1    2    0    0 -0.52354292008E-03  0.14860130512E-02  0.22626088652E+00  0.22626694925E+00  0.51109989000E-03 0.  1.
     -623    1    1    2    0    0  0.27317098802E-02 -0.17984648305E-02  0.36531750804E-04  0.17130000003E+03  0.17130000000E+03 0. -1.
      622    1    1    2    0    0 -0.22081669607E-02  0.31245177969E-03  0.37737025499E+01  0.37737330203E+01  0.15000000000E-01 0.  1.
</event>
<event>
 5   0  0.2306700E+09  0.9118800E+02  0.7818608E-02  0.1180000E+00
       11   -1    0    0    0    0  0.00000000000E+00  0.00000000000E+00  0.39999999673E+01  0.40000000000E+01  0.51109989000E-03 0. -1.
     -623   -1    0    0    0    0  0.00000000000E+00  0.00000000000E+00  0.12525980253E-10  0.17130000000E+03  0.17130000000E+03 0. -1.
       11    1    1    2    0    0  0.29980933324E-03 -0.13465701310E-02  0.45359615998E+00  0.45359854575E+00  0.51109989000E-03 0. -1.
     -623    1    1    2    0    0  0.43881260885E-02  0.14209141256E-03  0.37434867143E-04  0.17130000006E+03  0.17130000000E+03 0. -1.
      622    1    1    2    0    0 -0.46879354177E-02  0.12044787186E-02  0.35463663688E+01  0.35464013943E+01  0.15000000000E-01 0.  0.
</event>
<event>
 5   0  0.2306700E+09  0.9118800E+02  0.7818608E-02  0.1180000E+00
       11   -1    0    0    0    0  0.00000000000E+00  0.00000000000E+00  0.39999999673E+01  0.40000000000E+01  0.51109989000E-03 0. -1.
     -623   -1    0    0    0    0  0.00000000000E+00  0.00000000000E+00  0.12525980253E-10  0.17130000000E+03  0.17130000000E+03 0. -1.
       11    1    1    2    0    0 -0.23601160200E-03  0.28889881099E-03  0.27008524534E-01  0.27015935753E-01  0.51109989000E-03 0. -1.
     -623    1    1    2    0    0  0.18314417619E-04  0.53101458445E-04  0.35715624395E-04  0.17130000000E+03  0.17130000000E+03 0. -1.
      622    1    1    2    0    0  0.21769718438E-03 -0.34200026945E-03  0.39729557279E+01  0.39729840649E+01  0.15000000000E-01 0. -1.
</event>
<event>
 5   0  0.2306700E+09  0.9118800E+02  0.7818608E-02  0.1180000E+00
       11   -1    0    0    0    0  0.00000000000E+00  0.00000000000E+00  0.39999999673E+01  0.40000000000E+01  0.51109989000E-03 0.  1.
     -623   -1    0    0    0    0  0.00000000000E+00  0.00000000000E+00  0.12525980253E-10  0.17130000000E+03  0.17130000000E+03 0.  1.
       11    1    1    2    0    0 -0.73903729421E-02 -0.41649654391E-02  0.25206010114E+00  0.25220333138E+00  0.51109989000E-03 0.  1.
     -623    1    1    2    0    0  0.50809225886E-02 -0.73690480745E-03  0.17720963858E-03  0.17130000008E+03  0.17130000000E+03 0.  1.
      622    1    1    2    0    0  0.23094503535E-02  0.49018702466E-02  0.37477626566E+01  0.37477965916E+01  0.15000000000E-01 0.  1.
</event>
<event>
 5   0  0.2306700E+09  0.9118800E+02  0.7818608E-02  0.1180000E+00
       11   -1    0    0    0    0  0.00000000000E+00  0.00000000000E+00  0.39999999673E+01  0.40000000000E+01  0.51109989000E-03 0.  1.
     -623   -1    0    0    0    0  0.00000000000E+00  0.00000000000E+00  0.12525980253E-10  0.17130000000E+03  0.17130000000E+03 0. -1.
       11    1    1    2    0    0 -0.91982173801E-02  0.47858326270E-02  0.55409649092E+00  0.55419373316E+00  0.51109989000E-03 0.  1.
     -623    1    1    2    0    0  0.22879201666E-02  0.22539327810E-02  0.14400859994E-03  0.17130000003E+03  0.17130000000E+03 0. -1.
      622    1    1    2    0    0  0.69102972129E-02 -0.70397654086E-02  0.34457594690E+01  0.34458062378E+01  0.15000000000E-01 0.  1.
</event>
<event>
 5   0  0.2306700E+09  0.9118800E+02  0.7818608E-02  0.1180000E+00
       11   -1    0    0    0    0  0.00000000000E+00  0.00000000000E+00  0.39999999673E+01  0.40000000000E+01  0.51109989000E-03 0. -1.
     -623   -1    0    0    0    0  0.00000000000E+00  0.00000000000E+00  0.12525980253E-10  0.17130000000E+03  0.17130000000E+03 0. -1.
       11    1    1    2    0    0 -0.93750838199E-03 -0.35490080027E-03  0.25695390600E-01  0.25720015508E-01  0.51109989000E-03 0. -1.
     -623    1    1    2    0    0  0.27236823912E-03 -0.31731711758E-03  0.53012411683E-04  0.17130000000E+03  0.17130000000E+03 0. -1.
      622    1    1    2    0    0  0.66514014258E-03  0.67221791818E-03  0.39742515686E+01  0.39742799882E+01  0.15000000000E-01 0. -1.
</event>
<event>
 5   0  0.2306700E+09  0.9118800E+02  0.7818608E-02  0.1180000E+00
       11   -1    0    0    0    0  0.00000000000E+00  0.00000000000E+00  0.39999999673E+01  0.40000000000E+01  0.51109989000E-03 0. -1.
     -623   -1    0    0    0    0  0.00000000000E+00  0.00000000000E+00  0.12525980253E-10  0.17130000000E+03  0.17130000000E+03 0.  1.
       11    1    1    2    0    0 -0.39166252454E-03 -0.91264725852E-03  0.13168485960E-01  0.13215769653E-01  0.51109989000E-03 0. -1.
     -623    1    1    2    0    0  0.94268608838E-03 -0.53243224368E-04  0.75627088266E-04  0.17130000000E+03  0.17130000000E+03 0.  1.
      622    1    1    2    0    0 -0.55102356384E-03  0.96589048289E-03  0.39867558543E+01  0.39867842277E+01  0.15000000000E-01 0. -1.
</event>
<event>
 5   0  0.2306700E+09  0.9118800E+02  0.7818608E-02  0.1180000E+00
       11   -1    0    0    0    0  0.00000000000E+00  0.00000000000E+00  0.39999999673E+01  0.40000000000E+01  0.51109989000E-03 0.  1.
     -623   -1    0    0    0    0  0.00000000000E+00  0.00000000000E+00  0.12525980253E-10  0.17130000000E+03  0.17130000000E+03 0.  1.
       11    1    1    2    0    0  0.15893805240E-02 -0.14462371027E-03  0.24148755657E+00  0.24149337103E+00  0.51109989000E-03 0.  1.
     -623    1    1    2    0    0 -0.63549531648E-03  0.31037791146E-02  0.37029293905E-04  0.17130000003E+03  0.17130000000E+03 0.  1.
      622    1    1    2    0    0 -0.95388520879E-03 -0.29591553982E-02  0.37584753736E+01  0.37585065918E+01  0.15000000000E-01 0.  1.
</event>
<event>
 5   0  0.2306700E+09  0.9118800E+02  0.7818608E-02  0.1180000E+00
       11   -1    0    0    0    0  0.00000000000E+00  0.00000000000E+00  0.39999999673E+01  0.40000000000E+01  0.51109989000E-03 0.  1.
     -623   -1    0    0    0    0  0.00000000000E+00  0.00000000000E+00  0.12525980253E-10  0.17130000000E+03  0.17130000000E+03 0.  1.
       11    1    1    2    0    0  0.39945289843E-02  0.99957767488E-03  0.76748425259E+00  0.76749546878E+00  0.51109989000E-03 0.  1.
     -623    1    1    2    0    0 -0.71675571280E-03  0.26453144447E-02  0.49725238624E-04  0.17130000002E+03  0.17130000000E+03 0.  1.
      622    1    1    2    0    0 -0.32777732715E-02 -0.36448921196E-02  0.32324659895E+01  0.32325045093E+01  0.15000000000E-01 0.  1.
</event>
<event>
 5   0  0.2306700E+09  0.9118800E+02  0.7818608E-02  0.1180000E+00
       11   -1    0    0    0    0  0.00000000000E+00  0.00000000000E+00  0.39999999673E+01  0.40000000000E+01  0.51109989000E-03 0.  1.
     -623   -1    0    0    0    0  0.00000000000E+00  0.00000000000E+00  0.12525980253E-10  0.17130000000E+03  0.17130000000E+03 0.  1.
       11    1    1    2    0    0 -0.22311431777E-03  0.13933565072E-02  0.17474252101E-01  0.17538584092E-01  0.51109989000E-03 0.  1.
     -623    1    1    2    0    0  0.53111344748E-03 -0.54289331687E-03  0.92652740597E-04  0.17130000000E+03  0.17130000000E+03 0.  1.
      622    1    1    2    0    0 -0.30799913041E-03 -0.85046318963E-03  0.39824330678E+01  0.39824614195E+01  0.15000000000E-01 0.  1.
</event>
<event>
 5   0  0.2306700E+09  0.9118800E+02  0.7818608E-02  0.1180000E+00
       11   -1    0    0    0    0  0.00000000000E+00  0.00000000000E+00  0.39999999673E+01  0.40000000000E+01  0.51109989000E-03 0. -1.
     -623   -1    0    0    0    0  0.00000000000E+00  0.00000000000E+00  0.12525980253E-10  0.17130000000E+03  0.17130000000E+03 0.  1.
       11    1    1    2    0    0 -0.36183973726E-03  0.25690383387E-02  0.59629908147E+00  0.59630494436E+00  0.51109989000E-03 0. -1.
     -623    1    1    2    0    0 -0.29721175362E-02 -0.34533549581E-02  0.40691044854E-04  0.17130000006E+03  0.17130000000E+03 0.  1.
      622    1    1    2    0    0  0.33339572755E-02  0.88431662192E-03  0.34036601977E+01  0.34036949979E+01  0.15000000000E-01 0.  0.
</event>
<event>
 5   0  0.2306700E+09  0.9118800E+02  0.7818608E-02  0.1180000E+00
       11   -1    0    0    0    0  0.00000000000E+00  0.00000000000E+00  0.39999999673E+01  0.40000000000E+01  0.51109989000E-03 0.  1.
     -623   -1    0    0    0    0  0.00000000000E+00  0.00000000000E+00  0.12525980253E-10  0.17130000000E+03  0.17130000000E+03 0. -1.
       11    1    1    2    0    0  0.73221271981E-03 -0.22349042184E-02  0.40520030832E-02  0.47128424986E-02  0.51109989000E-03 0.  1.
     -623    1    1    2    0    0 -0.13723795689E-02  0.37310253786E-02  0.68934398446E-03  0.17130000005E+03  0.17130000000E+03 0. -1.
      622    1    1    2    0    0  0.64016684913E-03 -0.14961211603E-02  0.39952586205E+01  0.39952871102E+01  0.15000000000E-01 0.  1.
</event>
<event>
 5   0  0.2306700E+09  0.9118800E+02  0.7818608E-02  0.1180000E+00
       11   -1    0    0    0    0  0.00000000000E+00  0.00000000000E+00  0.39999999673E+01  0.40000000000E+01  0.51109989000E-03 0. -1.
     -623   -1    0    0    0    0  0.00000000000E+00  0.00000000000E+00  0.12525980253E-10  0.17130000000E+03  0.17130000000E+03 0. -1.
       11    1    1    2    0    0 -0.80139370573E-02  0.76798028297E-02  0.57410862489E+00  0.57421614132E+00  0.51109989000E-03 0. -1.
     -623    1    1    2    0    0 -0.63023762989E-03 -0.14197371213E-02  0.15695588140E-03  0.17130000001E+03  0.17130000000E+03 0. -1.
      622    1    1    2    0    0  0.86441746872E-02 -0.62600657084E-02  0.34257343866E+01  0.34257838516E+01  0.15000000000E-01 0. -1.
</event>
<event>
 5   0  0.2306700E+09  0.9118800E+02  0.7818608E-02  0.1180000E+00
       11   -1    0    0    0    0  0.00000000000E+00  0.00000000000E+00  0.39999999673E+01  0.40000000000E+01  0.51109989000E-03 0. -1.
     -623   -1    0    0    0    0  0.00000000000E+00  0.00000000000E+00  0.12525980253E-10  0.17130000000E+03  0.17130000000E+03 0. -1.
       11    1    1    2    0    0 -0.21617586576E-02  0.75417465294E-02  0.64327102466E+00  0.64331906822E+00  0.51109989000E-03 0. -1.
     -623    1    1    2    0    0  0.19630387875E-01 -0.14316706690E-01  0.13554211862E-03  0.17130000172E+03  0.17130000000E+03 0. -1.
      622    1    1    2    0    0 -0.17468629241E-01  0.67749601774E-02  0.33565934053E+01  0.33566792134E+01  0.15000000000E-01 0. -1.
</event>
<event>
 5   0  0.2306700E+09  0.9118800E+02  0.7818608E-02  0.1180000E+00
       11   -1    0    0    0    0  0.00000000000E+00  0.00000000000E+00  0.39999999673E+01  0.40000000000E+01  0.51109989000E-03 0.  1.
     -623   -1    0    0    0    0  0.00000000000E+00  0.00000000000E+00  0.12525980253E-10  0.17130000000E+03  0.17130000000E+03 0. -1.
       11    1    1    2    0    0  0.83082640935E-02  0.29703645102E-02  0.40333433353E+00  0.40343115416E+00  0.51109989000E-03 0.  1.
     -623    1    1    2    0    0 -0.67096376596E-02 -0.19123226862E-02  0.12872098072E-03  0.17130000014E+03  0.17130000000E+03 0. -1.
      622    1    1    2    0    0 -0.15986264309E-02 -0.10580418231E-02  0.35965369146E+01  0.35965687055E+01  0.15000000000E-01 0.  0.
</event>
<event>
 5   0  0.2306700E+09  0.9118800E+02  0.7818608E-02  0.1180000E+00
       11   -1    0    0    0    0  0.00000000000E+00  0.00000000000E+00  0.39999999673E+01  0.40000000000E+01  0.51109989000E-03 0.  1.
     -623   -1    0    0    0    0  0.00000000000E+00  0.00000000000E+00  0.12525980253E-10  0.17130000000E+03  0.17130000000E+03 0. -1.
       11    1    1    2    0    0  0.18040385008E-02  0.20833833209E-03  0.61239146174E-01  0.61268198963E-01  0.51109989000E-03 0.  1.
     -623    1    1    2    0    0  0.23840756049E-02 -0.17425211870E-02  0.60133663524E-04  0.17130000003E+03  0.17130000000E+03 0. -1.
      622    1    1    2    0    0 -0.41881141057E-02  0.15341828549E-02  0.39387006875E+01  0.39387317756E+01  0.15000000000E-01 0.  1.
</event>
<event>
 5   0  0.2306700E+09  0.9118800E+02  0.7818608E-02  0.1180000E+00
       11   -1    0    0    0    0  0.00000000000E+00  0.00000000000E+00  0.39999999673E+01  0.40000000000E+01  0.51109989000E-03 0. -1.
     -623   -1    0    0    0    0  0.00000000000E+00  0.00000000000E+00  0.12525980253E-10  0.17130000000E+03  0.17130000000E+03 0. -1.
       11    1    1    2    0    0 -0.54147253578E-04  0.69482473071E-03  0.41307604845E-01  0.41316645005E-01  0.51109989000E-03 0. -1.
     -623    1    1    2    0    0 -0.11101865252E-03 -0.74192141843E-04  0.37478314158E-04  0.17130000000E+03  0.17130000000E+03 0. -1.
      622    1    1    2    0    0  0.16516590609E-03 -0.62063258887E-03  0.39586548841E+01  0.39586833548E+01  0.15000000000E-01 0. -1.
</event>
<event>
 5   0  0.2306700E+09  0.9118800E+02  0.7818608E-02  0.1180000E+00
       11   -1    0    0    0    0  0.00000000000E+00  0.00000000000E+00  0.39999999673E+01  0.40000000000E+01  0.51109989000E-03 0.  1.
     -623   -1    0    0    0    0  0.00000000000E+00  0.00000000000E+00  0.12525980253E-10  0.17130000000E+03  0.17130000000E+03 0.  1.
       11    1    1    2    0    0  0.39672940409E-02  0.28651623408E-02  0.24296846966E+00  0.24301828542E+00  0.51109989000E-03 0.  1.
     -623    1    1    2    0    0 -0.18147804185E-03  0.13804037054E-03  0.82835446893E-04  0.17130000000E+03  0.17130000000E+03 0.  1.
      622    1    1    2    0    0 -0.37858159991E-02 -0.30032027113E-02  0.37569486623E+01  0.37569817144E+01  0.15000000000E-01 0.  1.
</event>
<event>
 5   0  0.2306700E+09  0.9118800E+02  0.7818608E-02  0.1180000E+00
       11   -1    0    0    0    0  0.00000000000E+00  0.00000000000E+00  0.39999999673E+01  0.40000000000E+01  0.51109989000E-03 0. -1.
     -623   -1    0    0    0    0  0.00000000000E+00  0.00000000000E+00  0.12525980253E-10  0.17130000000E+03  0.17130000000E+03 0.  1.
       11    1    1    2    0    0  0.74982033447E-03  0.15392826196E-03  0.27582197866E-01  0.27597550356E-01  0.51109989000E-03 0. -1.
     -623    1    1    2    0    0  0.28456295684E-04  0.15997033210E-03  0.43729069858E-04  0.17130000000E+03  0.17130000000E+03 0.  1.
      622    1    1    2    0    0 -0.77827663015E-03 -0.31389859407E-03  0.39723740404E+01  0.39724024496E+01  0.15000000000E-01 0. -1.
</event>
<event>
 5   0  0.2306700E+09  0.9118800E+02  0.7818608E-02  0.1180000E+00
       11   -1    0    0    0    0  0.00000000000E+00  0.00000000000E+00  0.39999999673E+01  0.40000000000E+01  0.51109989000E-03 0.  1.
     -623   -1    0    0    0    0  0.00000000000E+00  0.00000000000E+00  0.12525980253E-10  0.17130000000E+03  0.17130000000E+03 0.  1.
       11    1    1    2    0    0 -0.41686515502E-02 -0.67761617928E-02  0.90121510862E+00  0.90125036879E+00  0.51109989000E-03 0.  1.
     -623    1    1    2    0    0 -0.62941310602E-03  0.76035706734E-02  0.75527783089E-04  0.17130000017E+03  0.17130000000E+03 0.  1.
      622    1    1    2    0    0  0.47980646565E-02 -0.82740888503E-03  0.30987093333E+01  0.30987494636E+01  0.15000000000E-01 0.  1.
</event>
<event>
 5   0  0.2306700E+09  0.9118800E+02  0.7818608E-02  0.1180000E+00
       11   -1    0    0    0    0  0.00000000000E+00  0.00000000000E+00  0.39999999673E+01  0.40000000000E+01  0.51109989000E-03 0. -1.
     -623   -1    0    0    0    0  0.00000000000E+00  0.00000000000E+00  0.12525980253E-10  0.17130000000E+03  0.17130000000E+03 0. -1.
       11    1    1    2    0    0 -0.40815069115E-02  0.69546833843E-03  0.66803141023E+00  0.66804443614E+00  0.51109989000E-03 0. -1.
     -623    1    1    2    0    0 -0.10634123266E-01  0.53956985952E-02  0.85236625832E-04  0.17130000042E+03  0.17130000000E+03 0. -1.
      622    1    1    2    0    0  0.14715630178E-01 -0.60911669336E-02  0.33318833205E+01  0.33319551488E+01  0.15000000000E-01 0.  0.
</event>
<event>
 5   0  0.2306700E+09  0.9118800E+02  0.7818608E-02  0.1180000E+00
       11   -1    0    0    0    0  0.00000000000E+00  0.00000000000E+00  0.39999999673E+01  0.40000000000E+01  0.51109989000E-03 0. -1.
     -623   -1    0    0    0    0  0.00000000000E+00  0.00000000000E+00  0.12525980253E-10  0.17130000000E+03  0.17130000000E+03 0.  1.
       11    1    1    2    0    0  0.29527214686E-02 -0.16849553058E-02  0.37130626057E+00  0.37132217548E+00  0.51109989000E-03 0. -1.
     -623    1    1    2    0    0 -0.34375756196E-02  0.32670513537E-04  0.47328500069E-04  0.17130000003E+03  0.17130000000E+03 0.  1.
      622    1    1    2    0    0  0.48485415237E-03  0.16522847923E-02  0.36286463799E+01  0.36286777916E+01  0.15000000000E-01 0. -1.
</event>
<event>
 5   0  0.2306700E+09  0.9118800E+02  0.7818608E-02  0.1180000E+00
       11   -1    0    0    0    0  0.00000000000E+00  0.00000000000E+00  0.39999999673E+01  0.40000000000E+01  0.51109989000E-03 0.  1.
     -623   -1    0    0    0    0  0.00000000000E+00  0.00000000000E+00  0.12525980253E-10  0.17130000000E+03  0.17130000000E+03 0.  1.
       11    1    1    2    0    0 -0.33200882265E-02 -0.13310972692E-02  0.32590892896E-01  0.32790582926E-01  0.51109989000E-03 0.  1.
     -623    1    1    2    0    0  0.41507524002E-03  0.19874005959E-02  0.22914504223E-03  0.17130000001E+03  0.17130000000E+03 0.  1.
      622    1    1    2    0    0  0.29050129864E-02 -0.65630332703E-03  0.39671799301E+01  0.39672094055E+01  0.15000000000E-01 0.  1.
</event>
<event>
 5   0  0.2306700E+09  0.9118800E+02  0.7818608E-02  0.1180000E+00
       11   -1    0    0    0    0  0.00000000000E+00  0.00000000000E+00  0.39999999673E+01  0.40000000000E+01  0.51109989000E-03 0.  1.
     -623   -1    0    0    0    0  0.00000000000E+00  0.00000000000E+00  0.12525980253E-10  0.17130000000E+03  0.17130000000E+03 0. -1.
       11    1    1    2    0    0 -0.67950615883E-03  0.98685557366E-04  0.36319606809E-01  0.36329692117E-01  0.51109989000E-03 0.  1.
     -623    1    1    2    0    0 -0.12148914132E-03 -0.49988977078E-04  0.38516842630E-04  0.17130000000E+03  0.17130000000E+03 0. -1.
      622    1    1    2    0    0  0.80099530020E-03 -0.48696580268E-04  0.39636418453E+01  0.39636703094E+01  0.15000000000E-01 0.  1.
</event>
<event>
 5   0  0.2306700E+09  0.9118800E+02  0.7818608E-02  0.1180000E+00
       11   -1    0    0    0    0  0.00000000000E+00  0.00000000000E+00  0.39999999673E+01  0.40000000000E+01  0.51109989000E-03 0.  1.
     -623   -1    0    0    0    0  0.00000000000E+00  0.00000000000E+00  0.12525980253E-10  0.17130000000E+03  0.17130000000E+03 0.  1.
       11    1    1    2    0    0 -0.14776877044E-02 -0.30978141915E-02  0.85683064328E-01  0.85753301679E-01  0.51109989000E-03 0.  1.
     -623    1    1    2    0    0 -0.64675299027E-03  0.38609638558E-03  0.10046350560E-03  0.17130000000E+03  0.17130000000E+03 0.  1.
      622    1    1    2    0    0  0.21244406947E-02  0.27117178059E-02  0.39142164395E+01  0.39142466966E+01  0.15000000000E-01 0.  1.
</event>
<event>
 5   0  0.2306700E+09  0.9118800E+02  0.7818608E-02  0.1180000E+00
       11   -1    0    0    0    0  0.00000000000E+00  0.00000000000E+00  0.39999999673E+01  0.40000000000E+01  0.51109989000E-03 0. -1.
     -623   -1    0    0    0    0  0.00000000000E+00  0.00000000000E+00  0.12525980253E-10  0.17130000000E+03  0.17130000000E+03 0. -1.
       11    1    1    2    0    0 -0.46097995389E-02 -0.11235907574E-02  0.75521747419E+00  0.75523255177E+00  0.51109989000E-03 0. -1.
     -623    1    1    2    0    0 -0.69650385270E-04  0.37156208481E-04  0.53272521473E-04  0.17130000000E+03  0.17130000000E+03 0. -1.
      622    1    1    2    0    0  0.46794499241E-02  0.10864345489E-02  0.32447292203E+01  0.32447674479E+01  0.15000000000E-01 0. -1.
</event>
<event>
 5   0  0.2306700E+09  0.9118800E+02  0.7818608E-02  0.1180000E+00
       11   -1    0    0    0    0  0.00000000000E+00  0.00000000000E+00  0.39999999673E+01  0.40000000000E+01  0.51109989000E-03 0. -1.
     -623   -1    0    0    0    0  0.00000000000E+00  0.00000000000E+00  0.12525980253E-10  0.17130000000E+03  0.17130000000E+03 0. -1.
       11    1    1    2    0    0 -0.64395672622E-03 -0.20109288294E-02  0.13818956069E-01  0.13988684090E-01  0.51109989000E-03 0. -1.
     -623    1    1    2    0    0 -0.37149194054E-03  0.34704356446E-03  0.19839667963E-03  0.17130000000E+03  0.17130000000E+03 0. -1.
      622    1    1    2    0    0  0.10154486668E-02  0.16638852649E-02  0.39859826146E+01  0.39860113150E+01  0.15000000000E-01 0. -1.
</event>
<event>
 5   0  0.2306700E+09  0.9118800E+02  0.7818608E-02  0.1180000E+00
       11   -1    0    0    0    0  0.00000000000E+00  0.00000000000E+00  0.39999999673E+01  0.40000000000E+01  0.51109989000E-03 0. -1.
     -623   -1    0    0    0    0  0.00000000000E+00  0.00000000000E+00  0.12525980253E-10  0.17130000000E+03  0.17130000000E+03 0. -1.
       11    1    1    2    0    0  0.25462568771E-03  0.23497099902E-03  0.60565483820E+00  0.60565515295E+00  0.51109989000E-03 0. -1.
     -623    1    1    2    0    0  0.19672012128E-03  0.76387195847E-03  0.33604430974E-04  0.17130000000E+03  0.17130000000E+03 0. -1.
      622    1    1    2    0    0 -0.45134580900E-03 -0.99884295749E-03  0.33943115247E+01  0.33943448452E+01  0.15000000000E-01 0. -1.
</event>
<event>
 5   0  0.2306700E+09  0.9118800E+02  0.7818608E-02  0.1180000E+00
       11   -1    0    0    0    0  0.00000000000E+00  0.00000000000E+00  0.39999999673E+01  0.40000000000E+01  0.51109989000E-03 0.  1.
     -623   -1    0    0    0    0  0.00000000000E+00  0.00000000000E+00  0.12525980253E-10  0.17130000000E+03  0.17130000000E+03 0.  1.
       11    1    1    2    0    0  0.12619543181E-02  0.44771983746E-03  0.58349479013E+00  0.58349655039E+00  0.51109989000E-03 0.  1.
     -623    1    1    2    0    0 -0.31010860943E-06  0.27423735706E-04  0.34922175740E-04  0.17130000000E+03  0.17130000000E+03 0.  1.
      622    1    1    2    0    0 -0.12616442095E-02 -0.47514357317E-03  0.34164702558E+01  0.34165034503E+01  0.15000000000E-01 0.  1.
</event>
<event>
 5   0  0.2306700E+09  0.9118800E+02  0.7818608E-02  0.1180000E+00
       11   -1    0    0    0    0  0.00000000000E+00  0.00000000000E+00  0.39999999673E+01  0.40000000000E+01  0.51109989000E-03 0.  1.
     -623   -1    0    0    0    0  0.00000000000E+00  0.00000000000E+00  0.12525980253E-10  0.17130000000E+03  0.17130000000E+03 0. -1.
       11    1    1    2    0    0 -0.12242498856E-02  0.31404613581E-02  0.19336150327E+00  0.19339155477E+00  0.51109989000E-03 0.  1.
     -623    1    1    2    0    0  0.16854694088E-03 -0.35852571010E-02  0.59782828168E-04  0.17130000004E+03  0.17130000000E+03 0. -1.
      622    1    1    2    0    0  0.10557029447E-02  0.44479574293E-03  0.38065786813E+01  0.38066084076E+01  0.15000000000E-01 0.  1.
</event>
<event>
 5   0  0.2306700E+09  0.9118800E+02  0.7818608E-02  0.1180000E+00
       11   -1    0    0    0    0  0.00000000000E+00  0.00000000000E+00  0.39999999673E+01  0.40000000000E+01  0.51109989000E-03 0.  1.
     -623   -1    0    0    0    0  0.00000000000E+00  0.00000000000E+00  0.12525980253E-10  0.17130000000E+03  0.17130000000E+03 0.  1.
       11    1    1    2    0    0  0.98352183175E-02  0.15164509635E-02  0.10649384285E+01  0.10649850463E+01  0.51109989000E-03 0.  1.
     -623    1    1    2    0    0 -0.25679915640E-03  0.56857919437E-05  0.10094047535E-03  0.17130000000E+03  0.17130000000E+03 0.  1.
      622    1    1    2    0    0 -0.95784191612E-02 -0.15221367555E-02  0.29349605967E+01  0.29350149518E+01  0.15000000000E-01 0. -1.
</event>
<event>
 5   0  0.2306700E+09  0.9118800E+02  0.7818608E-02  0.1180000E+00
       11   -1    0    0    0    0  0.00000000000E+00  0.00000000000E+00  0.39999999673E+01  0.40000000000E+01  0.51109989000E-03 0.  1.
     -623   -1    0    0    0    0  0.00000000000E+00  0.00000000000E+00  0.12525980253E-10  0.17130000000E+03  0.17130000000E+03 0. -1.
       11    1    1    2    0    0 -0.29408589379E-03 -0.11789389678E-02  0.67338389394E-01  0.67351290209E-01  0.51109989000E-03 0.  1.
     -623    1    1    2    0    0  0.19816285142E-02  0.24163191291E-02  0.42060204775E-04  0.17130000003E+03  0.17130000000E+03 0. -1.
      622    1    1    2    0    0 -0.16875426228E-02 -0.12373801643E-02  0.39326195226E+01  0.39326486861E+01  0.15000000000E-01 0.  1.
</event>
<event>
 5   0  0.2306700E+09  0.9118800E+02  0.7818608E-02  0.1180000E+00
       11   -1    0    0    0    0  0.00000000000E+00  0.00000000000E+00  0.39999999673E+01  0.40000000000E+01  0.51109989000E-03 0. -1.
     -623   -1    0    0    0    0  0.00000000000E+00  0.00000000000E+00  0.12525980253E-10  0.17130000000E+03  0.17130000000E+03 0. -1.
       11    1    1    2    0    0  0.90877397049E-04  0.27278265436E-03  0.65624606337E-01  0.65627226414E-01  0.51109989000E-03 0. -1.
     -623    1    1    2    0    0  0.25512820608E-05 -0.25851606529E-04  0.31190543123E-04  0.17130000000E+03  0.17130000000E+03 0. -1.
      622    1    1    2    0    0 -0.93428679109E-04 -0.24693104783E-03  0.39343441705E+01  0.39343727736E+01  0.15000000000E-01 0. -1.
</event>
<event>
 5   0  0.2306700E+09  0.9118800E+02  0.7818608E-02  0.1180000E+00
       11   -1    0    0    0    0  0.00000000000E+00  0.00000000000E+00  0.39999999673E+01  0.40000000000E+01  0.51109989000E-03 0.  1.
     -623   -1    0    0    0    0  0.00000000000E+00  0.00000000000E+00  0.12525980253E-10  0.17130000000E+03  0.17130000000E+03 0. -1.
       11    1    1    2    0    0 -0.18877303106E-02 -0.11470474285E-03  0.12250675867E+00  0.12252242172E+00  0.51109989000E-03 0.  1.
     -623    1    1    2    0    0  0.71742895031E-03  0.15328098633E-02  0.45088527299E-04  0.17130000001E+03  0.17130000000E+03 0. -1.
      622    1    1    2    0    0  0.11703013603E-02 -0.14181051204E-02  0.38774481202E+01  0.38774775699E+01  0.15000000000E-01 0.  1.
</event>
<event>
 5   0  0.2306700E+09  0.9118800E+02  0.7818608E-02  0.1180000E+00
       11   -1    0    0    0    0  0.00000000000E+00  0.00000000000E+00  0.39999999673E+01  0.40000000000E+01  0.51109989000E-03 0. -1.
     -623   -1    0    0    0    0  0.00000000000E+00  0.00000000000E+00  0.12525980253E-10  0.17130000000E+03  0.17130000000E+03 0. -1.
       11    1    1    2    0    0  0.38893271593E-02 -0.69712102663E-02  0.10133766785E+01  0.10134082487E+01  0.51109989000E-03 0. -1.
     -623    1    1    2    0    0 -0.29255191688E-02  0.28103127888E-03  0.76880172375E-04  0.17130000003E+03  0.17130000000E+03 0. -1.
      622    1    1    2    0    0 -0.96380799044E-03  0.66901789875E-02  0.29865464087E+01  0.29865917261E+01  0.15000000000E-01 0. -1.
</event>
<event>
 5   0  0.2306700E+09  0.9118800E+02  0.7818608E-02  0.1180000E+00
       11   -1    0    0    0    0  0.00000000000E+00  0.00000000000E+00  0.39999999673E+01  0.40000000000E+01  0.51109989000E-03 0. -1.
     -623   -1    0    0    0    0  0.00000000000E+00  0.00000000000E+00  0.12525980253E-10  0.17130000000E+03  0.17130000000E+03 0.  1.
       11    1    1    2    0    0 -0.14508195558E-02  0.15511114096E-02  0.11560685114E+00  0.11562748841E+00  0.51109989000E-03 0. -1.
     -623    1    1    2    0    0  0.16816562376E-02 -0.27433070356E-03  0.49792130406E-04  0.17130000001E+03  0.17130000000E+03 0.  1.
      622    1    1    2    0    0 -0.23083668096E-03 -0.12767807062E-02  0.38843433221E+01  0.38843725011E+01  0.15000000000E-01 0. -1.
</event>
<event>
 5   0  0.2306700E+09  0.9118800E+02  0.7818608E-02  0.1180000E+00
       11   -1    0    0    0    0  0.00000000000E+00  0.00000000000E+00  0.39999999673E+01  0.40000000000E+01  0.51109989000E-03 0. -1.
     -623   -1    0    0    0    0  0.00000000000E+00  0.00000000000E+00  0.12525980253E-10  0.17130000000E+03  0.17130000000E+03 0. -1.
       11    1    1    2    0    0 -0.67320364169E-02 -0.49841000692E-02  0.49096179584E+00  0.49103350982E+00  0.51109989000E-03 0. -1.
     -623    1    1    2    0    0  0.13008142176E-02  0.92957379745E-02  0.11085169180E-03  0.17130000026E+03  0.17130000000E+03 0. -1.
      622    1    1    2    0    0  0.54312221990E-02 -0.43116379076E-02  0.35089273208E+01  0.35089662340E+01  0.15000000000E-01 0. -1.
</event>
<event>
 5   0  0.2306700E+09  0.9118800E+02  0.7818608E-02  0.1180000E+00
       11   -1    0    0    0    0  0.00000000000E+00  0.00000000000E+00  0.39999999673E+01  0.40000000000E+01  0.51109989000E-03 0. -1.
     -623   -1    0    0    0    0  0.00000000000E+00  0.00000000000E+00  0.12525980253E-10  0.17130000000E+03  0.17130000000E+03 0. -1.
       11    1    1    2    0    0  0.10119504663E-01  0.33639069537E-02  0.41631966105E+00  0.41645653031E+00  0.51109989000E-03 0. -1.
     -623    1    1    2    0    0 -0.86274572388E-03  0.15991448803E-02  0.18363268584E-03  0.17130000001E+03  0.17130000000E+03 0. -1.
      622    1    1    2    0    0 -0.92567589396E-02 -0.49630518340E-02  0.35834966736E+01  0.35835434600E+01  0.15000000000E-01 0. -1.
</event>
<event>
 5   0  0.2306700E+09  0.9118800E+02  0.7818608E-02  0.1180000E+00
       11   -1    0    0    0    0  0.00000000000E+00  0.00000000000E+00  0.39999999673E+01  0.40000000000E+01  0.51109989000E-03 0.  1.
     -623   -1    0    0    0    0  0.00000000000E+00  0.00000000000E+00  0.12525980253E-10  0.17130000000E+03  0.17130000000E+03 0.  1.
       11    1    1    2    0    0  0.45023777437E-02  0.24020952050E-02  0.96193546505E-01  0.96330167025E-01  0.51109989000E-03 0.  1.
     -623    1    1    2    0    0  0.38975728274E-03  0.35568285889E-03  0.16944752386E-03  0.17130000000E+03  0.17130000000E+03 0.  1.
      622    1    1    2    0    0 -0.48921350266E-02 -0.27577780641E-02  0.39036369749E+01  0.39036698336E+01  0.15000000000E-01 0.  1.
</event>
<event>
 5   0  0.2306700E+09  0.9118800E+02  0.7818608E-02  0.1180000E+00
       11   -1    0    0    0    0  0.00000000000E+00  0.00000000000E+00  0.39999999673E+01  0.40000000000E+01  0.51109989000E-03 0. -1.
     -623   -1    0    0    0    0  0.00000000000E+00  0.00000000000E+00  0.12525980253E-10  0.17130000000E+03  0.17130000000E+03 0. -1.
       11    1    1    2    0    0 -0.92369126004E-03  0.21369824044E-02  0.47672584888E+00  0.47673180732E+00  0.51109989000E-03 0. -1.
     -623    1    1    2    0    0 -0.16196813193E-03  0.10058180703E-03  0.38734429999E-04  0.17130000000E+03  0.17130000000E+03 0. -1.
      622    1    1    2    0    0  0.10856593920E-02 -0.22375642115E-02  0.35232353841E+01  0.35232681926E+01  0.15000000000E-01 0. -1.
</event>
<event>
 5   0  0.2306700E+09  0.9118800E+02  0.7818608E-02  0.1180000E+00
       11   -1    0    0    0    0  0.00000000000E+00  0.00000000000E+00  0.39999999673E+01  0.40000000000E+01  0.51109989000E-03 0. -1.
     -623   -1    0    0    0    0  0.00000000000E+00  0.00000000000E+00  0.12525980253E-10  0.17130000000E+03  0.17130000000E+03 0. -1.
       11    1    1    2    0    0 -0.25017581152E-03 -0.13763781591E-01  0.50480255239E+00  0.50499047752E+00  0.51109989000E-03 0. -1.
     -623    1    1    2    0    0  0.85337205898E-03 -0.75731385949E-03  0.25030402938E-03  0.17130000000E+03  0.17130000000E+03 0. -1.
      622    1    1    2    0    0 -0.60319624739E-03  0.14521095450E-01  0.34949471106E+01  0.34950095182E+01  0.15000000000E-01 0. -1.
</event>
<event>
 5   0  0.2306700E+09  0.9118800E+02  0.7818608E-02  0.1180000E+00
       11   -1    0    0    0    0  0.00000000000E+00  0.00000000000E+00  0.39999999673E+01  0.40000000000E+01  0.51109989000E-03 0. -1.
     -623   -1    0    0    0    0  0.00000000000E+00  0.00000000000E+00  0.12525980253E-10  0.17130000000E+03  0.17130000000E+03 0.  1.
       11    1    1    2    0    0 -0.16184851518E-02 -0.34479554917E-03  0.57746988899E-01  0.57772954989E-01  0.51109989000E-03 0. -1.
     -623    1    1    2    0    0  0.22637712334E-02  0.11498989134E-02  0.54624573038E-04  0.17130000002E+03  0.17130000000E+03 0.  1.
      622    1    1    2    0    0 -0.64528608397E-03 -0.80510336541E-03  0.39421983581E+01  0.39422270304E+01  0.15000000000E-01 0. -1.
</event>
<event>
 5   0  0.2306700E+09  0.9118800E+02  0.7818608E-02  0.1180000E+00
       11   -1    0    0    0    0  0.00000000000E+00  0.00000000000E+00  0.39999999673E+01  0.40000000000E+01  0.51109989000E-03 0. -1.
     -623   -1    0    0    0    0  0.00000000000E+00  0.00000000000E+00  0.12525980253E-10  0.17130000000E+03  0.17130000000E+03 0. -1.
       11    1    1    2    0    0 -0.78453718917E-04  0.79269797596E-03  0.69508872174E-01  0.69515315284E-01  0.51109989000E-03 0. -1.
     -623    1    1    2    0    0  0.14618854967E-03  0.11493548153E-03  0.35138483367E-04  0.17130000000E+03  0.17130000000E+03 0. -1.
      622    1    1    2    0    0 -0.67734831159E-04 -0.90763345781E-03  0.39304559679E+01  0.39304846958E+01  0.15000000000E-01 0. -1.
</event>
<event>
 5   0  0.2306700E+09  0.9118800E+02  0.7818608E-02  0.1180000E+00
       11   -1    0    0    0    0  0.00000000000E+00  0.00000000000E+00  0.39999999673E+01  0.40000000000E+01  0.51109989000E-03 0.  1.
     -623   -1    0    0    0    0  0.00000000000E+00  0.00000000000E+00  0.12525980253E-10  0.17130000000E+03  0.17130000000E+03 0. -1.
       11    1    1    2    0    0 -0.37488546980E-03  0.38005017102E-03  0.90600592810E-02  0.90901526127E-02  0.51109989000E-03 0.  1.
     -623    1    1    2    0    0  0.38948646606E-05  0.40464422248E-04  0.58289264535E-04  0.17130000000E+03  0.17130000000E+03 0. -1.
      622    1    1    2    0    0  0.37099060514E-03 -0.42051459332E-03  0.39908816240E+01  0.39909098526E+01  0.15000000000E-01 0.  1.
</event>
<event>
 5   0  0.2306700E+09  0.9118800E+02  0.7818608E-02  0.1180000E+00
       11   -1    0    0    0    0  0.00000000000E+00  0.00000000000E+00  0.39999999673E+01  0.40000000000E+01  0.51109989000E-03 0.  1.
     -623   -1    0    0    0    0  0.00000000000E+00  0.00000000000E+00  0.12525980253E-10  0.17130000000E+03  0.17130000000E+03 0. -1.
       11    1    1    2    0    0  0.40867705220E-03  0.62740427974E-03  0.33996274042E-01  0.34008359633E-01  0.51109989000E-03 0.  1.
     -623    1    1    2    0    0 -0.39703130660E-03 -0.73366650598E-03  0.40422700268E-04  0.17130000000E+03  0.17130000000E+03 0. -1.
      622    1    1    2    0    0 -0.11645745118E-04  0.10626222713E-03  0.39659632755E+01  0.39659916432E+01  0.15000000000E-01 0.  1.
</event>
<event>
 5   0  0.2306700E+09  0.9118800E+02  0.7818608E-02  0.1180000E+00
       11   -1    0    0    0    0  0.00000000000E+00  0.00000000000E+00  0.39999999673E+01  0.40000000000E+01  0.51109989000E-03 0. -1.
     -623   -1    0    0    0    0  0.00000000000E+00  0.00000000000E+00  0.12525980253E-10  0.17130000000E+03  0.17130000000E+03 0.  1.
       11    1    1    2    0    0 -0.50338455357E-03 -0.60490487258E-03  0.77948160410E-02  0.78510944396E-02  0.51109989000E-03 0. -1.
     -623    1    1    2    0    0 -0.16338665225E-03  0.23668255006E-03  0.84499096307E-04  0.17130000000E+03  0.17130000000E+03 0.  1.
      622    1    1    2    0    0  0.66677120582E-03  0.36822232252E-03  0.39921206522E+01  0.39921489053E+01  0.15000000000E-01 0. -1.
</event>
<event>
 5   0  0.2306700E+09  0.9118800E+02  0.7818608E-02  0.1180000E+00
       11   -1    0    0    0    0  0.00000000000E+00  0.00000000000E+00  0.39999999673E+01  0.40000000000E+01  0.51109989000E-03 0.  1.
     -623   -1    0    0    0    0  0.00000000000E+00  0.00000000000E+00  0.12525980253E-10  0.17130000000E+03  0.17130000000E+03 0. -1.
       11    1    1    2    0    0 -0.17247039228E-02 -0.52445729492E-02  0.53100641611E+00  0.53103536165E+00  0.51109989000E-03 0.  1.
     -623    1    1    2    0    0  0.72746059347E-02  0.70253187105E-02  0.66538694488E-04  0.17130000030E+03  0.17130000000E+03 0. -1.
      622    1    1    2    0    0 -0.55499020119E-02 -0.17807457613E-02  0.34689270126E+01  0.34689643398E+01  0.15000000000E-01 0.  1.
</event>
<event>
 5   0  0.2306700E+09  0.9118800E+02  0.7818608E-02  0.1180000E+00
       11   -1    0    0    0    0  0.00000000000E+00  0.00000000000E+00  0.39999999673E+01  0.40000000000E+01  0.51109989000E-03 0.  1.
     -623   -1    0    0    0    0  0.00000000000E+00  0.00000000000E+00  0.12525980253E-10  0.17130000000E+03  0.17130000000E+03 0.  1.
       11    1    1    2    0    0  0.65809304779E-03  0.66187805229E-03  0.55184917991E-02  0.56201551447E-02  0.51109989000E-03 0. -1.
     -623    1    1    2    0    0  0.45219823986E-03  0.12909333688E-02  0.13043255720E-03  0.17130000001E+03  0.17130000000E+03 0.  1.
      622    1    1    2    0    0 -0.11102912880E-02 -0.19528114221E-02  0.39943510460E+01  0.39943798424E+01  0.15000000000E-01 0.  1.
</event>
<event>
 5   0  0.2306700E+09  0.9118800E+02  0.7818608E-02  0.1180000E+00
       11   -1    0    0    0    0  0.00000000000E+00  0.00000000000E+00  0.39999999673E+01  0.40000000000E+01  0.51109989000E-03 0. -1.
     -623   -1    0    0    0    0  0.00000000000E+00  0.00000000000E+00  0.12525980253E-10  0.17130000000E+03  0.17130000000E+03 0.  1.
       11    1    1    2    0    0 -0.64152688808E-03  0.73021164172E-03  0.42848258461E-02  0.44233156590E-02  0.51109989000E-03 0. -1.
     -623    1    1    2    0    0 -0.13553251277E-02 -0.50640783081E-03  0.16712485008E-03  0.17130000001E+03  0.17130000000E+03 0.  1.
      622    1    1    2    0    0  0.19968520163E-02 -0.22380381070E-03  0.39955480184E+01  0.39955766798E+01  0.15000000000E-01 0. -1.
</event>
<event>
 5   0  0.2306700E+09  0.9118800E+02  0.7818608E-02  0.1180000E+00
       11   -1    0    0    0    0  0.00000000000E+00  0.00000000000E+00  0.39999999673E+01  0.40000000000E+01  0.51109989000E-03 0. -1.
     -623   -1    0    0    0    0  0.00000000000E+00  0.00000000000E+00  0.12525980253E-10  0.17130000000E+03  0.17130000000E+03 0. -1.
       11    1    1    2    0    0 -0.28442123546E-02  0.57669723587E-02  0.92893350531E+00  0.92895590101E+00  0.51109989000E-03 0. -1.
     -623    1    1    2    0    0  0.35120233550E-03 -0.16100712610E-02  0.62828993026E-04  0.17130000001E+03  0.17130000000E+03 0. -1.
      622    1    1    2    0    0  0.24930100191E-02 -0.41569010978E-02  0.30710036331E+01  0.30710440911E+01  0.15000000000E-01 0. -1.
</event>
<event>
 5   0  0.2306700E+09  0.9118800E+02  0.7818608E-02  0.1180000E+00
       11   -1    0    0    0    0  0.00000000000E+00  0.00000000000E+00  0.39999999673E+01  0.40000000000E+01  0.51109989000E-03 0. -1.
     -623   -1    0    0    0    0  0.00000000000E+00  0.00000000000E+00  0.12525980253E-10  0.17130000000E+03  0.17130000000E+03 0.  1.
       11    1    1    2    0    0 -0.97780791516E-04  0.25896686310E-03  0.96355638149E-02  0.96530792003E-02  0.51109989000E-03 0. -1.
     -623    1    1    2    0    0  0.47634823745E-03  0.33623564933E-04  0.45705238712E-04  0.17130000000E+03  0.17130000000E+03 0.  1.
      622    1    1    2    0    0 -0.37856744635E-03 -0.29259042806E-03  0.39903187018E+01  0.39903469236E+01  0.15000000000E-01 0. -1.
</event>
<event>
 5   0  0.2306700E+09  0.9118800E+02  0.7818608E-02  0.1180000E+00
       11   -1    0    0    0    0  0.00000000000E+00  0.00000000000E+00  0.39999999673E+01  0.40000000000E+01  0.51109989000E-03 0.  1.
     -623   -1    0    0    0    0  0.00000000000E+00  0.00000000000E+00  0.12525980253E-10  0.17130000000E+03  0.17130000000E+03 0. -1.
       11    1    1    2    0    0  0.31961161960E-02  0.39001905366E-02  0.50509711874E+00  0.50512254674E+00  0.51109989000E-03 0.  1.
     -623    1    1    2    0    0 -0.20560509133E-03 -0.99752025582E-04  0.60931498657E-04  0.17130000000E+03  0.17130000000E+03 0. -1.
      622    1    1    2    0    0 -0.29905111046E-02 -0.38004385110E-02  0.34948419171E+01  0.34948774531E+01  0.15000000000E-01 0.  0.
</event>
<event>
 5   0  0.2306700E+09  0.9118800E+02  0.7818608E-02  0.1180000E+00
       11   -1    0    0    0    0  0.00000000000E+00  0.00000000000E+00  0.39999999673E+01  0.40000000000E+01  0.51109989000E-03 0. -1.
     -623   -1    0    0    0    0  0.00000000000E+00  0.00000000000E+00  0.12525980253E-10  0.17130000000E+03  0.17130000000E+03 0.  1.
       11    1    1    2    0    0 -0.10872835685E-01  0.16981350640E-01  0.64202722342E-01  0.67296624011E-01  0.51109989000E-03 0. -1.
     -623    1    1    2    0    0 -0.43794655439E-02 -0.75805681309E-02  0.31635414124E-02  0.17130000025E+03  0.17130000000E+03 0.  1.
      622    1    1    2    0    0  0.15252301228E-01 -0.94007825088E-02  0.39326337036E+01  0.39327031231E+01  0.15000000000E-01 0. -1.
</event>
<event>
 5   0  0.2306700E+09  0.9118800E+02  0.7818608E-02  0.1180000E+00
       11   -1    0    0    0    0  0.00000000000E+00  0.00000000000E+00  0.39999999673E+01  0.40000000000E+01  0.51109989000E-03 0.  1.
     -623   -1    0    0    0    0  0.00000000000E+00  0.00000000000E+00  0.12525980253E-10  0.17130000000E+03  0.17130000000E+03 0. -1.
       11    1    1    2    0    0  0.20353418086E-02 -0.16740886259E-02  0.16550589673E-01  0.16766884910E-01  0.51109989000E-03 0.  1.
     -623    1    1    2    0    0  0.13544017340E-03  0.24658947680E-03  0.24535380519E-03  0.17130000000E+03  0.17130000000E+03 0. -1.
      622    1    1    2    0    0 -0.21707819820E-02  0.14274991491E-02  0.39832040239E+01  0.39832331147E+01  0.15000000000E-01 0.  1.
</event>
<event>
 5   0  0.2306700E+09  0.9118800E+02  0.7818608E-02  0.1180000E+00
       11   -1    0    0    0    0  0.00000000000E+00  0.00000000000E+00  0.39999999673E+01  0.40000000000E+01  0.51109989000E-03 0.  1.
     -623   -1    0    0    0    0  0.00000000000E+00  0.00000000000E+00  0.12525980253E-10  0.17130000000E+03  0.17130000000E+03 0. -1.
       11    1    1    2    0    0 -0.16866271330E-03 -0.13638065336E-03  0.34488941645E+00  0.34488986336E+00  0.51109989000E-03 0.  1.
     -623    1    1    2    0    0 -0.11726528452E-03 -0.92961092382E-04  0.31211673164E-04  0.17130000000E+03  0.17130000000E+03 0. -1.
      622    1    1    2    0    0  0.28592799781E-03  0.22934174574E-03  0.36550793392E+01  0.36551101366E+01  0.15000000000E-01 0.  1.
</event>
<event>
 5   0  0.2306700E+09  0.9118800E+02  0.7818608E-02  0.1180000E+00
       11   -1    0    0    0    0  0.00000000000E+00  0.00000000000E+00  0.39999999673E+01  0.40000000000E+01  0.51109989000E-03 0.  1.
     -623   -1    0    0    0    0  0.00000000000E+00  0.00000000000E+00  0.12525980253E-10  0.17130000000E+03  0.17130000000E+03 0. -1.
       11    1    1    2    0    0  0.29090619638E-03  0.22614406044E-03  0.54083071869E-02  0.54448854236E-02  0.51109989000E-03 0.  1.
     -623    1    1    2    0    0 -0.75616094561E-03 -0.12536737164E-02  0.64874554103E-04  0.17130000001E+03  0.17130000000E+03 0. -1.
      622    1    1    2    0    0  0.46525474902E-03  0.10275296556E-02  0.39945267845E+01  0.39945551072E+01  0.15000000000E-01 0.  1.
</event>
<event>
 5   0  0.2306700E+09  0.9118800E+02  0.7818608E-02  0.1180000E+00
       11   -1    0    0    0    0  0.00000000000E+00  0.00000000000E+00  0.39999999673E+01  0.40000000000E+01  0.51109989000E-03 0. -1.
     -623   -1    0    0    0    0  0.00000000000E+00  0.00000000000E+00  0.12525980253E-10  0.17130000000E+03  0.17130000000E+03 0. -1.
       11    1    1    2    0    0 -0.13135106658E-02  0.84934046073E-03  0.12198615150E+00  0.12199725026E+00  0.51109989000E-03 0. -1.
     -623    1    1    2    0    0 -0.54669430290E-03  0.96657313687E-03  0.40950925854E-04  0.17130000000E+03  0.17130000000E+03 0. -1.
      622    1    1    2    0    0  0.18602049687E-02 -0.18159135976E-02  0.38779728649E+01  0.38780027461E+01  0.15000000000E-01 0. -1.
</event>
<event>
 5   0  0.2306700E+09  0.9118800E+02  0.7818608E-02  0.1180000E+00
       11   -1    0    0    0    0  0.00000000000E+00  0.00000000000E+00  0.39999999673E+01  0.40000000000E+01  0.51109989000E-03 0. -1.
     -623   -1    0    0    0    0  0.00000000000E+00  0.00000000000E+00  0.12525980253E-10  0.17130000000E+03  0.17130000000E+03 0.  1.
       11    1    1    2    0    0  0.55453116554E-03  0.15459502050E-02  0.18312412942E+00  0.18313220761E+00  0.51109989000E-03 0. -1.
     -623    1    1    2    0    0  0.21548354425E-03 -0.98991032243E-04  0.37872208190E-04  0.17130000000E+03  0.17130000000E+03 0.  1.
      622    1    1    2    0    0 -0.77001470976E-03 -0.14469591728E-02  0.38168379653E+01  0.38168677918E+01  0.15000000000E-01 0. -1.
</event>
<event>
 5   0  0.2306700E+09  0.9118800E+02  0.7818608E-02  0.1180000E+00
       11   -1    0    0    0    0  0.00000000000E+00  0.00000000000E+00  0.39999999673E+01  0.40000000000E+01  0.51109989000E-03 0.  1.
     -623   -1    0    0    0    0  0.00000000000E+00  0.00000000000E+00  0.12525980253E-10  0.17130000000E+03  0.17130000000E+03 0.  1.
       11    1    1    2    0    0  0.84919606389E-02  0.29342331536E-02  0.20185250334E+00  0.20205300652E+00  0.51109989000E-03 0.  1.
     -623    1    1    2    0    0 -0.64886496628E-02 -0.40419055380E-02  0.23095253774E-03  0.17130000017E+03  0.17130000000E+03 0.  1.
      622    1    1    2    0    0 -0.20033109761E-02  0.11076723844E-02  0.37979165115E+01  0.37979468227E+01  0.15000000000E-01 0.  1.
</event>
<event>
 5   0  0.2306700E+09  0.9118800E+02  0.7818608E-02  0.1180000E+00
       11   -1    0    0    0    0  0.00000000000E+00  0.00000000000E+00  0.39999999673E+01  0.40000000000E+01  0.51109989000E-03 0. -1.
     -623   -1    0    0    0    0  0.00000000000E+00  0.00000000000E+00  0.12525980253E-10  0.17130000000E+03  0.17130000000E+03 0. -1.
       11    1    1    2    0    0  0.54417162432E-03 -0.10821617977E-02  0.51264179182E-01  0.51281034381E-01  0.51109989000E-03 0. -1.
     -623    1    1    2    0    0 -0.74456882460E-03  0.22594890150E-02  0.45510039335E-04  0.17130000002E+03  0.17130000000E+03 0. -1.
      622    1    1    2    0    0  0.20039719897E-03 -0.11773272133E-02  0.39486902711E+01  0.39487189420E+01  0.15000000000E-01 0. -1.
</event>
<event>
 5   0  0.2306700E+09  0.9118800E+02  0.7818608E-02  0.1180000E+00
       11   -1    0    0    0    0  0.00000000000E+00  0.00000000000E+00  0.39999999673E+01  0.40000000000E+01  0.51109989000E-03 0.  1.
     -623   -1    0    0    0    0  0.00000000000E+00  0.00000000000E+00  0.12525980253E-10  0.17130000000E+03  0.17130000000E+03 0.  1.
       11    1    1    2    0    0 -0.21022931275E-03 -0.24591069192E-02  0.63441523949E-01  0.63491570994E-01  0.51109989000E-03 0.  1.
     -623    1    1    2    0    0 -0.24715198722E-02  0.11227416803E-02  0.79754976328E-04  0.17130000002E+03  0.17130000000E+03 0.  1.
      622    1    1    2    0    0  0.26817491862E-02  0.13363652383E-02  0.39364786905E+01  0.39365084096E+01  0.15000000000E-01 0.  1.
</event>
<event>
 5   0  0.2306700E+09  0.9118800E+02  0.7818608E-02  0.1180000E+00
       11   -1    0    0    0    0  0.00000000000E+00  0.00000000000E+00  0.39999999673E+01  0.40000000000E+01  0.51109989000E-03 0. -1.
     -623   -1    0    0    0    0  0.00000000000E+00  0.00000000000E+00  0.12525980253E-10  0.17130000000E+03  0.17130000000E+03 0.  1.
       11    1    1    2    0    0 -0.35213252020E-02  0.77376430482E-03  0.18283014311E+00  0.18286640177E+00  0.51109989000E-03 0. -1.
     -623    1    1    2    0    0  0.12627058768E-03  0.15893442469E-02  0.67947256585E-04  0.17130000001E+03  0.17130000000E+03 0.  1.
      622    1    1    2    0    0  0.33950546143E-02 -0.23631085517E-02  0.38171018770E+01  0.38171335908E+01  0.15000000000E-01 0. -1.
</event>
<event>
 5   0  0.2306700E+09  0.9118800E+02  0.7818608E-02  0.1180000E+00
       11   -1    0    0    0    0  0.00000000000E+00  0.00000000000E+00  0.39999999673E+01  0.40000000000E+01  0.51109989000E-03 0. -1.
     -623   -1    0    0    0    0  0.00000000000E+00  0.00000000000E+00  0.12525980253E-10  0.17130000000E+03  0.17130000000E+03 0. -1.
       11    1    1    2    0    0 -0.13329238549E-02  0.13446436459E-02  0.40783708126E-01  0.40830831784E-01  0.51109989000E-03 0.  1.
     -623    1    1    2    0    0 -0.34484660524E-04  0.14048442097E-03  0.76020933919E-04  0.17130000000E+03  0.17130000000E+03 0. -1.
      622    1    1    2    0    0  0.13674085154E-02 -0.14851280667E-02  0.39591402349E+01  0.39591691648E+01  0.15000000000E-01 0. -1.
</event>
<event>
 5   0  0.2306700E+09  0.9118800E+02  0.7818608E-02  0.1180000E+00
       11   -1    0    0    0    0  0.00000000000E+00  0.00000000000E+00  0.39999999673E+01  0.40000000000E+01  0.51109989000E-03 0. -1.
     -623   -1    0    0    0    0  0.00000000000E+00  0.00000000000E+00  0.12525980253E-10  0.17130000000E+03  0.17130000000E+03 0. -1.
       11    1    1    2    0    0  0.75757398784E-02 -0.13110274716E-01  0.10861253305E+01  0.10862309911E+01  0.51109989000E-03 0. -1.
     -623    1    1    2    0    0  0.67629100561E-02  0.12029593555E-02  0.20398745779E-03  0.17130000014E+03  0.17130000000E+03 0. -1.
      622    1    1    2    0    0 -0.14338649934E-01  0.11907315361E-01  0.29136706490E+01  0.29137688707E+01  0.15000000000E-01 0. -1.
</event>
<event>
 5   0  0.2306700E+09  0.9118800E+02  0.7818608E-02  0.1180000E+00
       11   -1    0    0    0    0  0.00000000000E+00  0.00000000000E+00  0.39999999673E+01  0.40000000000E+01  0.51109989000E-03 0.  1.
     -623   -1    0    0    0    0  0.00000000000E+00  0.00000000000E+00  0.12525980253E-10  0.17130000000E+03  0.17130000000E+03 0. -1.
       11    1    1    2    0    0 -0.57460669419E-03  0.98461574738E-03  0.90526730768E-02  0.91384764900E-02  0.51109989000E-03 0.  1.
     -623    1    1    2    0    0  0.19379133588E-04 -0.31547778125E-03  0.11405532430E-03  0.17130000000E+03  0.17130000000E+03 0. -1.
      622    1    1    2    0    0  0.55522756061E-03 -0.66913796613E-03  0.39908332390E+01  0.39908615232E+01  0.15000000000E-01 0.  1.
</event>
<event>
 5   0  0.2306700E+09  0.9118800E+02  0.7818608E-02  0.1180000E+00
       11   -1    0    0    0    0  0.00000000000E+00  0.00000000000E+00  0.39999999673E+01  0.40000000000E+01  0.51109989000E-03 0. -1.
     -623   -1    0    0    0    0  0.00000000000E+00  0.00000000000E+00  0.12525980253E-10  0.17130000000E+03  0.17130000000E+03 0.  1.
       11    1    1    2    0    0 -0.48507621663E-02  0.25748490876E-02  0.21610024452E+00  0.21617061929E+00  0.51109989000E-03 0. -1.
     -623    1    1    2    0    0  0.10756656490E-03 -0.14048681045E-03  0.10383017635E-03  0.17130000000E+03  0.17130000000E+03 0.  1.
      622    1    1    2    0    0  0.47431956014E-02 -0.24343622771E-02  0.37837958938E+01  0.37838293817E+01  0.15000000000E-01 0. -1.
</event>
<event>
 5   0  0.2306700E+09  0.9118800E+02  0.7818608E-02  0.1180000E+00
       11   -1    0    0    0    0  0.00000000000E+00  0.00000000000E+00  0.39999999673E+01  0.40000000000E+01  0.51109989000E-03 0.  1.
     -623   -1    0    0    0    0  0.00000000000E+00  0.00000000000E+00  0.12525980253E-10  0.17130000000E+03  0.17130000000E+03 0. -1.
       11    1    1    2    0    0  0.41498506786E-03  0.50746381228E-03  0.65117049584E-02  0.65645454290E-02  0.51109989000E-03 0.  1.
     -623    1    1    2    0    0 -0.41187224008E-03 -0.14213896413E-03  0.80996447423E-04  0.17130000000E+03  0.17130000000E+03 0. -1.
      622    1    1    2    0    0 -0.31128273017E-05 -0.36532484798E-03  0.39934072706E+01  0.39934354587E+01  0.15000000000E-01 0.  1.
</event>
<event>
 5   0  0.2306700E+09  0.9118800E+02  0.7818608E-02  0.1180000E+00
       11   -1    0    0    0    0  0.00000000000E+00  0.00000000000E+00  0.39999999673E+01  0.40000000000E+01  0.51109989000E-03 0.  1.
     -623   -1    0    0    0    0  0.00000000000E+00  0.00000000000E+00  0.12525980253E-10  0.17130000000E+03  0.17130000000E+03 0.  1.
       11    1    1    2    0    0  0.14391468072E-02 -0.88646393239E-03  0.61898096660E-02  0.64367638325E-02  0.51109989000E-03 0.  1.
     -623    1    1    2    0    0 -0.32636096027E-02  0.36007605380E-02  0.27650028778E-03  0.17130000007E+03  0.17130000000E+03 0.  1.
      622    1    1    2    0    0  0.18244627957E-02 -0.27142966059E-02  0.39935336577E+01  0.39935631673E+01  0.15000000000E-01 0.  1.
</event>
<event>
 5   0  0.2306700E+09  0.9118800E+02  0.7818608E-02  0.1180000E+00
       11   -1    0    0    0    0  0.00000000000E+00  0.00000000000E+00  0.39999999673E+01  0.40000000000E+01  0.51109989000E-03 0.  1.
     -623   -1    0    0    0    0  0.00000000000E+00  0.00000000000E+00  0.12525980253E-10  0.17130000000E+03  0.17130000000E+03 0. -1.
       11    1    1    2    0    0  0.13001690373E-02 -0.45360491880E-03  0.49294547261E-01  0.49316425354E-01  0.51109989000E-03 0.  1.
     -623    1    1    2    0    0 -0.12159780305E-02  0.22723865215E-03  0.50333496386E-04  0.17130000000E+03  0.17130000000E+03 0. -1.
      622    1    1    2    0    0 -0.84191003235E-04  0.22636626597E-03  0.39506550986E+01  0.39506835821E+01  0.15000000000E-01 0.  1.
</event>
<event>
 5   0  0.2306700E+09  0.9118800E+02  0.7818608E-02  0.1180000E+00
       11   -1    0    0    0    0  0.00000000000E+00  0.00000000000E+00  0.39999999673E+01  0.40000000000E+01  0.51109989000E-03 0. -1.
     -623   -1    0    0    0    0  0.00000000000E+00  0.00000000000E+00  0.12525980253E-10  0.17130000000E+03  0.17130000000E+03 0. -1.
       11    1    1    2    0    0  0.89672540813E-02  0.10593814868E-02  0.10524439197E+01  0.10524827786E+01  0.51109989000E-03 0. -1.
     -623    1    1    2    0    0 -0.11409148666E-02  0.54314987468E-03  0.87825084870E-04  0.17130000000E+03  0.17130000000E+03 0. -1.
      622    1    1    2    0    0 -0.78263392144E-02 -0.16025313616E-02  0.29474682238E+01  0.29475172179E+01  0.15000000000E-01 0. -1.
</event>
<event>
 5   0  0.2306700E+09  0.9118800E+02  0.7818608E-02  0.1180000E+00
       11   -1    0    0    0    0  0.00000000000E+00  0.00000000000E+00  0.39999999673E+01  0.40000000000E+01  0.51109989000E-03 0.  1.
     -623   -1    0    0    0    0  0.00000000000E+00  0.00000000000E+00  0.12525980253E-10  0.17130000000E+03  0.17130000000E+03 0. -1.
       11    1    1    2    0    0 -0.10063786048E-01 -0.69057485403E-02  0.81291650766E+00  0.81300828950E+00  0.51109989000E-03 0.  1.
     -623    1    1    2    0    0  0.16239150656E-02  0.20807843764E-02  0.14189746614E-03  0.17130000002E+03  0.17130000000E+03 0. -1.
      622    1    1    2    0    0  0.84398709824E-02  0.48249641638E-02  0.31869415622E+01  0.31869916901E+01  0.15000000000E-01 0.  0.
</event>
<event>
 5   0  0.2306700E+09  0.9118800E+02  0.7818608E-02  0.1180000E+00
       11   -1    0    0    0    0  0.00000000000E+00  0.00000000000E+00  0.39999999673E+01  0.40000000000E+01  0.51109989000E-03 0. -1.
     -623   -1    0    0    0    0  0.00000000000E+00  0.00000000000E+00  0.12525980253E-10  0.17130000000E+03  0.17130000000E+03 0. -1.
       11    1    1    2    0    0  0.14741057640E-02  0.19975661233E-02  0.25970163924E+00  0.25971400791E+00  0.51109989000E-03 0. -1.
     -623    1    1    2    0    0 -0.88383168902E-02 -0.13352955415E-02  0.49955643527E-04  0.17130000023E+03  0.17130000000E+03 0. -1.
      622    1    1    2    0    0  0.73642111262E-02 -0.66227058182E-03  0.37402483725E+01  0.37402857589E+01  0.15000000000E-01 0. -1.
</event>
<event>
 5   0  0.2306700E+09  0.9118800E+02  0.7818608E-02  0.1180000E+00
       11   -1    0    0    0    0  0.00000000000E+00  0.00000000000E+00  0.39999999673E+01  0.40000000000E+01  0.51109989000E-03 0.  1.
     -623   -1    0    0    0    0  0.00000000000E+00  0.00000000000E+00  0.12525980253E-10  0.17130000000E+03  0.17130000000E+03 0.  1.
       11    1    1    2    0    0  0.27155623422E-02 -0.13769390064E-03  0.26862792184E+00  0.26864216879E+00  0.51109989000E-03 0.  1.
     -623    1    1    2    0    0 -0.14505397155E-02 -0.27862140687E-02  0.45753165303E-04  0.17130000003E+03  0.17130000000E+03 0.  1.
      622    1    1    2    0    0 -0.12650226271E-02  0.29239079686E-02  0.37313262913E+01  0.37313578014E+01  0.15000000000E-01 0.  1.
</event>
<event>
 5   0  0.2306700E+09  0.9118800E+02  0.7818608E-02  0.1180000E+00
       11   -1    0    0    0    0  0.00000000000E+00  0.00000000000E+00  0.39999999673E+01  0.40000000000E+01  0.51109989000E-03 0.  1.
     -623   -1    0    0    0    0  0.00000000000E+00  0.00000000000E+00  0.12525980253E-10  0.17130000000E+03  0.17130000000E+03 0. -1.
       11    1    1    2    0    0 -0.46345842890E-02 -0.28581168703E-02  0.12571128096E+00  0.12583018551E+00  0.51109989000E-03 0.  1.
     -623    1    1    2    0    0 -0.30722666070E-03  0.39965530833E-03  0.15184321863E-03  0.17130000000E+03  0.17130000000E+03 0. -1.
      622    1    1    2    0    0  0.49418109497E-02  0.24584615620E-02  0.38741368432E+01  0.38741698137E+01  0.15000000000E-01 0.  1.
</event>
<event>
 5   0  0.2306700E+09  0.9118800E+02  0.7818608E-02  0.1180000E+00
       11   -1    0    0    0    0  0.00000000000E+00  0.00000000000E+00  0.39999999673E+01  0.40000000000E+01  0.51109989000E-03 0. -1.
     -623   -1    0    0    0    0  0.00000000000E+00  0.00000000000E+00  0.12525980253E-10  0.17130000000E+03  0.17130000000E+03 0. -1.
       11    1    1    2    0    0  0.42589630739E-03  0.16298099548E-02  0.30629565652E+00  0.30630071514E+00  0.51109989000E-03 0. -1.
     -623    1    1    2    0    0  0.79382782357E-04 -0.85528916605E-03  0.35601296226E-04  0.17130000000E+03  0.17130000000E+03 0. -1.
      622    1    1    2    0    0 -0.50527908985E-03 -0.77452078757E-03  0.36936687150E+01  0.36936992881E+01  0.15000000000E-01 0. -1.
</event>
<event>
 5   0  0.2306700E+09  0.9118800E+02  0.7818608E-02  0.1180000E+00
       11   -1    0    0    0    0  0.00000000000E+00  0.00000000000E+00  0.39999999673E+01  0.40000000000E+01  0.51109989000E-03 0. -1.
     -623   -1    0    0    0    0  0.00000000000E+00  0.00000000000E+00  0.12525980253E-10  0.17130000000E+03  0.17130000000E+03 0.  1.
       11    1    1    2    0    0 -0.47813336048E-02 -0.78021802119E-02  0.72788786157E+00  0.72794555800E+00  0.51109989000E-03 0. -1.
     -623    1    1    2    0    0  0.53779221424E-02  0.46974596592E-02  0.93722267139E-04  0.17130000015E+03  0.17130000000E+03 0.  1.
      622    1    1    2    0    0 -0.59658853757E-03  0.31047205526E-02  0.32720183835E+01  0.32720542932E+01  0.15000000000E-01 0.  0.
</event>
<event>
 5   0  0.2306700E+09  0.9118800E+02  0.7818608E-02  0.1180000E+00
       11   -1    0    0    0    0  0.00000000000E+00  0.00000000000E+00  0.39999999673E+01  0.40000000000E+01  0.51109989000E-03 0. -1.
     -623   -1    0    0    0    0  0.00000000000E+00  0.00000000000E+00  0.12525980253E-10  0.17130000000E+03  0.17130000000E+03 0.  1.
       11    1    1    2    0    0  0.85037322192E-02 -0.87645579534E-02  0.79263101496E+00  0.79272524751E+00  0.51109989000E-03 0. -1.
     -623    1    1    2    0    0  0.11122182673E-02  0.61900097155E-03  0.15404058190E-03  0.17130000000E+03  0.17130000000E+03 0.  1.
      622    1    1    2    0    0 -0.96159504863E-02  0.81455569819E-02  0.32072149112E+01  0.32072747471E+01  0.15000000000E-01 0. -1.
</event>
<event>
 5   0  0.2306700E+09  0.9118800E+02  0.7818608E-02  0.1180000E+00
       11   -1    0    0    0    0  0.00000000000E+00  0.00000000000E+00  0.39999999673E+01  0.40000000000E+01  0.51109989000E-03 0. -1.
     -623   -1    0    0    0    0  0.00000000000E+00  0.00000000000E+00  0.12525980253E-10  0.17130000000E+03  0.17130000000E+03 0.  1.
       11    1    1    2    0    0  0.28997954447E-02  0.22572495816E-02  0.11369527374E+01  0.11369587910E+01  0.51109989000E-03 0. -1.
     -623    1    1    2    0    0 -0.53595654915E-02  0.95353916576E-04  0.47422191187E-04  0.17130000008E+03  0.17130000000E+03 0.  1.
      622    1    1    2    0    0  0.24597700628E-02 -0.23526034985E-02  0.28629998197E+01  0.28630411371E+01  0.15000000000E-01 0. -1.
</event>
<event>
 5   0  0.2306700E+09  0.9118800E+02  0.7818608E-02  0.1180000E+00
       11   -1    0    0    0    0  0.00000000000E+00  0.00000000000E+00  0.39999999673E+01  0.40000000000E+01  0.51109989000E-03 0.  1.
     -623   -1    0    0    0    0  0.00000000000E+00  0.00000000000E+00  0.12525980253E-10  0.17130000000E+03  0.17130000000E+03 0. -1.
       11    1    1    2    0    0 -0.30529188772E-02  0.29986966963E-02  0.10539101099E+00  0.10547909231E+00  0.51109989000E-03 0.  1.
     -623    1    1    2    0    0  0.73816159478E-02  0.34705768461E-02  0.12490860516E-03  0.17130000019E+03  0.17130000000E+03 0. -1.
      622    1    1    2    0    0 -0.43286970707E-02 -0.64692735424E-02  0.38944840478E+01  0.38945207134E+01  0.15000000000E-01 0.  1.
</event>
<event>
 5   0  0.2306700E+09  0.9118800E+02  0.7818608E-02  0.1180000E+00
       11   -1    0    0    0    0  0.00000000000E+00  0.00000000000E+00  0.39999999673E+01  0.40000000000E+01  0.51109989000E-03 0.  1.
     -623   -1    0    0    0    0  0.00000000000E+00  0.00000000000E+00  0.12525980253E-10  0.17130000000E+03  0.17130000000E+03 0.  1.
       11    1    1    2    0    0 -0.12723430386E-02 -0.59391698158E-03  0.53064902766E-01  0.53085937135E-01  0.51109989000E-03 0.  1.
     -623    1    1    2    0    0  0.91937187530E-04 -0.92484638284E-03  0.49976364996E-04  0.17130000000E+03  0.17130000000E+03 0.  1.
      622    1    1    2    0    0  0.11804058510E-02  0.15187633644E-02  0.39468850882E+01  0.39469140603E+01  0.15000000000E-01 0.  1.
</event>
<event>
 5   0  0.2306700E+09  0.9118800E+02  0.7818608E-02  0.1180000E+00
       11   -1    0    0    0    0  0.00000000000E+00  0.00000000000E+00  0.39999999673E+01  0.40000000000E+01  0.51109989000E-03 0.  1.
     -623   -1    0    0    0    0  0.00000000000E+00  0.00000000000E+00  0.12525980253E-10  0.17130000000E+03  0.17130000000E+03 0. -1.
       11    1    1    2    0    0 -0.24924470739E-03  0.23752433076E-03  0.18564943539E+00  0.18565045819E+00  0.51109989000E-03 0.  1.
     -623    1    1    2    0    0  0.24092717937E-03 -0.18907131230E-03  0.30484750960E-04  0.17130000000E+03  0.17130000000E+03 0. -1.
      622    1    1    2    0    0  0.83175274368E-05 -0.48453018002E-04  0.38143200569E+01  0.38143495512E+01  0.15000000000E-01 0.  1.
</event>
<event>
 5   0  0.2306700E+09  0.9118800E+02  0.7818608E-02  0.1180000E+00
       11   -1    0    0    0    0  0.00000000000E+00  0.00000000000E+00  0.39999999673E+01  0.40000000000E+01  0.51109989000E-03 0. -1.
     -623   -1    0    0    0    0  0.00000000000E+00  0.00000000000E+00  0.12525980253E-10  0.17130000000E+03  0.17130000000E+03 0.  1.
       11    1    1    2    0    0  0.28723154120E-02 -0.21581167403E-02  0.42255428927E+00  0.42256987146E+00  0.51109989000E-03 0. -1.
     -623    1    1    2    0    0  0.25166009865E-03  0.92241328702E-03  0.48576949734E-04  0.17130000000E+03  0.17130000000E+03 0.  1.
      622    1    1    2    0    0 -0.31239755108E-02  0.12357034528E-02  0.35773971033E+01  0.35774301280E+01  0.15000000000E-01 0. -1.
</event>
<event>
 5   0  0.2306700E+09  0.9118800E+02  0.7818608E-02  0.1180000E+00
       11   -1    0    0    0    0  0.00000000000E+00  0.00000000000E+00  0.39999999673E+01  0.40000000000E+01  0.51109989000E-03 0. -1.
     -623   -1    0    0    0    0  0.00000000000E+00  0.00000000000E+00  0.12525980253E-10  0.17130000000E+03  0.17130000000E+03 0.  1.
       11    1    1    2    0    0  0.49169230479E-03 -0.48977282230E-02  0.70756429212E-01  0.70929281684E-01  0.51109989000E-03 0. -1.
     -623    1    1    2    0    0  0.10360840016E-02  0.79032151900E-04  0.20470786517E-03  0.17130000000E+03  0.17130000000E+03 0.  1.
      622    1    1    2    0    0 -0.15277763064E-02  0.48186960711E-02  0.39290388303E+01  0.39290707150E+01  0.15000000000E-01 0. -1.
</event>
<event>
 5   0  0.2306700E+09  0.9118800E+02  0.7818608E-02  0.1180000E+00
       11   -1    0    0    0    0  0.00000000000E+00  0.00000000000E+00  0.39999999673E+01  0.40000000000E+01  0.51109989000E-03 0. -1.
     -623   -1    0    0    0    0  0.00000000000E+00  0.00000000000E+00  0.12525980253E-10  0.17130000000E+03  0.17130000000E+03 0.  1.
       11    1    1    2    0    0  0.21115627187E-02  0.16216286448E-02  0.28487618803E-01  0.28616324431E-01  0.51109989000E-03 0. -1.
     -623    1    1    2    0    0 -0.10597953812E-03  0.54721941586E-04  0.15786108658E-03  0.17130000000E+03  0.17130000000E+03 0.  1.
      622    1    1    2    0    0 -0.20055831806E-02 -0.16763505864E-02  0.39713544875E+01  0.39713836755E+01  0.15000000000E-01 0. -1.
</event>
<event>
 5   0  0.2306700E+09  0.9118800E+02  0.7818608E-02  0.1180000E+00
       11   -1    0    0    0    0  0.00000000000E+00  0.00000000000E+00  0.39999999673E+01  0.40000000000E+01  0.51109989000E-03 0.  1.
     -623   -1    0    0    0    0  0.00000000000E+00  0.00000000000E+00  0.12525980253E-10  0.17130000000E+03  0.17130000000E+03 0.  1.
       11    1    1    2    0    0  0.81395778251E-02  0.85674407616E-02  0.12742709316E+00  0.12797491575E+00  0.51109989000E-03 0.  1.
     -623    1    1    2    0    0 -0.32862434764E-02 -0.31290030537E-02  0.58376670877E-03  0.17130000006E+03  0.17130000000E+03 0.  1.
      622    1    1    2    0    0 -0.48533343487E-02 -0.54384377079E-02  0.38719891075E+01  0.38720250232E+01  0.15000000000E-01 0.  1.
</event>
<event>
 5   0  0.2306700E+09  0.9118800E+02  0.7818608E-02  0.1180000E+00
       11   -1    0    0    0    0  0.00000000000E+00  0.00000000000E+00  0.39999999673E+01  0.40000000000E+01  0.51109989000E-03 0. -1.
     -623   -1    0    0    0    0  0.00000000000E+00  0.00000000000E+00  0.12525980253E-10  0.17130000000E+03  0.17130000000E+03 0. -1.
       11    1    1    2    0    0  0.10035254161E-02 -0.42343536308E-03  0.19487270956E-01  0.19524377408E-01  0.51109989000E-03 0. -1.
     -623    1    1    2    0    0 -0.18164949890E-03  0.41238103601E-03  0.65422336793E-04  0.17130000000E+03  0.17130000000E+03 0. -1.
      622    1    1    2    0    0 -0.82187591704E-03  0.11054326763E-04  0.39804472771E+01  0.39804756250E+01  0.15000000000E-01 0. -1.
</event>
<event>
 5   0  0.2306700E+09  0.9118800E+02  0.7818608E-02  0.1180000E+00
       11   -1    0    0    0    0  0.00000000000E+00  0.00000000000E+00  0.39999999673E+01  0.40000000000E+01  0.51109989000E-03 0. -1.
     -623   -1    0    0    0    0  0.00000000000E+00  0.00000000000E+00  0.12525980253E-10  0.17130000000E+03  0.17130000000E+03 0. -1.
       11    1    1    2    0    0  0.12806331810E-02  0.48438905437E-03  0.13582846675E-01  0.13661244385E-01  0.51109989000E-03 0.  1.
     -623    1    1    2    0    0 -0.26605724482E-03 -0.26665584358E-03  0.10672206054E-03  0.17130000000E+03  0.17130000000E+03 0. -1.
      622    1    1    2    0    0 -0.10145759361E-02 -0.21773321079E-03  0.39863103986E+01  0.39863387552E+01  0.15000000000E-01 0. -1.
</event>
<event>
 5   0  0.2306700E+09  0.9118800E+02  0.7818608E-02  0.1180000E+00
       11   -1    0    0    0    0  0.00000000000E+00  0.00000000000E+00  0.39999999673E+01  0.40000000000E+01  0.51109989000E-03 0. -1.
     -623   -1    0    0    0    0  0.00000000000E+00  0.00000000000E+00  0.12525980253E-10  0.17130000000E+03  0.17130000000E+03 0. -1.
       11    1    1    2    0    0 -0.15802040684E-02  0.87464755078E-03  0.93356979631E-01  0.93375847638E-01  0.51109989000E-03 0. -1.
     -623    1    1    2    0    0  0.78713433464E-03  0.79430073757E-03  0.48073369550E-04  0.17130000000E+03  0.17130000000E+03 0. -1.
      622    1    1    2    0    0  0.79306973244E-03 -0.16689482897E-02  0.39065949210E+01  0.39066241554E+01  0.15000000000E-01 0. -1.
</event>
<event>
 5   0  0.2306700E+09  0.9118800E+02  0.7818608E-02  0.1180000E+00
       11   -1    0    0    0    0  0.00000000000E+00  0.00000000000E+00  0.39999999673E+01  0.40000000000E+01  0.51109989000E-03 0. -1.
     -623   -1    0    0    0    0  0.00000000000E+00  0.00000000000E+00  0.12525980253E-10  0.17130000000E+03  0.17130000000E+03 0. -1.
       11    1    1    2    0    0 -0.10920327168E-02  0.18087186579E-02  0.27972160240E+00  0.27973004857E+00  0.51109989000E-03 0. -1.
     -623    1    1    2    0    0 -0.43454958072E-04 -0.20012607733E-04  0.39256694147E-04  0.17130000000E+03  0.17130000000E+03 0. -1.
      622    1    1    2    0    0  0.11354876749E-02 -0.17887060501E-02  0.37202391083E+01  0.37202699514E+01  0.15000000000E-01 0. -1.
</event>
<event>
 5   0  0.2306700E+09  0.9118800E+02  0.7818608E-02  0.1180000E+00
       11   -1    0    0    0    0  0.00000000000E+00  0.00000000000E+00  0.39999999673E+01  0.40000000000E+01  0.51109989000E-03 0. -1.
     -623   -1    0    0    0    0  0.00000000000E+00  0.00000000000E+00  0.12525980253E-10  0.17130000000E+03  0.17130000000E+03 0.  1.
       11    1    1    2    0    0 -0.10365226958E-01  0.54502571195E-03  0.11395086814E+01  0.11395560676E+01  0.51109989000E-03 0. -1.
     -623    1    1    2    0    0  0.11323179779E-03  0.18504679038E-03  0.10514890496E-03  0.17130000000E+03  0.17130000000E+03 0.  1.
      622    1    1    2    0    0  0.10251995160E-01 -0.73007250233E-03  0.28603861371E+01  0.28604439322E+01  0.15000000000E-01 0. -1.
</event>
<event>
 5   0  0.2306700E+09  0.9118800E+02  0.7818608E-02  0.1180000E+00
       11   -1    0    0    0    0  0.00000000000E+00  0.00000000000E+00  0.39999999673E+01  0.40000000000E+01  0.51109989000E-03 0.  1.
     -623   -1    0    0    0    0  0.00000000000E+00  0.00000000000E+00  0.12525980253E-10  0.17130000000E+03  0.17130000000E+03 0.  1.
       11    1    1    2    0    0 -0.86051310864E-03  0.15293625884E-02  0.28438372037E-01  0.28497046512E-01  0.51109989000E-03 0.  1.
     -623    1    1    2    0    0  0.17679792039E-03  0.18001630089E-03  0.87395675743E-04  0.17130000000E+03  0.17130000000E+03 0.  1.
      622    1    1    2    0    0  0.68371518813E-03 -0.17093788894E-02  0.39714742024E+01  0.39715029560E+01  0.15000000000E-01 0.  1.
</event>
<event>
 5   0  0.2306700E+09  0.9118800E+02  0.7818608E-02  0.1180000E+00
       11   -1    0    0    0    0  0.00000000000E+00  0.00000000000E+00  0.39999999673E+01  0.40000000000E+01  0.51109989000E-03 0. -1.
     -623   -1    0    0    0    0  0.00000000000E+00  0.00000000000E+00  0.12525980253E-10  0.17130000000E+03  0.17130000000E+03 0. -1.
       11    1    1    2    0    0  0.64538022542E-03  0.20194517702E-02  0.78859736019E-01  0.78889884579E-01  0.51109989000E-03 0. -1.
     -623    1    1    2    0    0  0.31989002904E-03 -0.17454051088E-02  0.58944468939E-04  0.17130000001E+03  0.17130000000E+03 0. -1.
      622    1    1    2    0    0 -0.96527025446E-03 -0.27404666141E-03  0.39210812869E+01  0.39211101062E+01  0.15000000000E-01 0. -1.
</event>
<event>
 5   0  0.2306700E+09  0.9118800E+02  0.7818608E-02  0.1180000E+00
       11   -1    0    0    0    0  0.00000000000E+00  0.00000000000E+00  0.39999999673E+01  0.40000000000E+01  0.51109989000E-03 0.  1.
     -623   -1    0    0    0    0  0.00000000000E+00  0.00000000000E+00  0.12525980253E-10  0.17130000000E+03  0.17130000000E+03 0. -1.
       11    1    1    2    0    0  0.61018927453E-02  0.22245645561E-02  0.54674676571E+00  0.54678557847E+00  0.51109989000E-03 0.  1.
     -623    1    1    2    0    0  0.38702157425E-03 -0.47682362173E-03  0.77898722355E-04  0.17130000000E+03  0.17130000000E+03 0. -1.
      622    1    1    2    0    0 -0.64889143199E-02 -0.17477409339E-02  0.34531753068E+01  0.34532144243E+01  0.15000000000E-01 0.  1.
</event>
<event>
 5   0  0.2306700E+09  0.9118800E+02  0.7818608E-02  0.1180000E+00
       11   -1    0    0    0    0  0.00000000000E+00  0.00000000000E+00  0.39999999673E+01  0.40000000000E+01  0.51109989000E-03 0.  1.
     -623   -1    0    0    0    0  0.00000000000E+00  0.00000000000E+00  0.12525980253E-10  0.17130000000E+03  0.17130000000E+03 0.  1.
       11    1    1    2    0    0  0.56785072633E-02  0.35009694641E-02  0.29219054166E+00  0.29226713139E+00  0.51109989000E-03 0.  1.
     -623    1    1    2    0    0 -0.46444336168E-02 -0.39702266771E-02  0.10718210668E-03  0.17130000011E+03  0.17130000000E+03 0.  1.
      622    1    1    2    0    0 -0.10340736437E-02  0.46925721540E-03  0.37077022460E+01  0.37077327620E+01  0.15000000000E-01 0.  1.
</event>
<event>
 5   0  0.2306700E+09  0.9118800E+02  0.7818608E-02  0.1180000E+00
       11   -1    0    0    0    0  0.00000000000E+00  0.00000000000E+00  0.39999999673E+01  0.40000000000E+01  0.51109989000E-03 0.  1.
     -623   -1    0    0    0    0  0.00000000000E+00  0.00000000000E+00  0.12525980253E-10  0.17130000000E+03  0.17130000000E+03 0. -1.
       11    1    1    2    0    0  0.58842332857E-02  0.81682578647E-02  0.74160622526E+00  0.74167472601E+00  0.51109989000E-03 0.  1.
     -623    1    1    2    0    0  0.69119024672E-04 -0.57645258284E-04  0.11852870092E-03  0.17130000000E+03  0.17130000000E+03 0. -1.
      622    1    1    2    0    0 -0.59533523104E-02 -0.81106126064E-02  0.32582752134E+01  0.32583252739E+01  0.15000000000E-01 0.  1.
</event>
<event>
 5   0  0.2306700E+09  0.9118800E+02  0.7818608E-02  0.1180000E+00
       11   -1    0    0    0    0  0.00000000000E+00  0.00000000000E+00  0.39999999673E+01  0.40000000000E+01  0.51109989000E-03 0. -1.
     -623   -1    0    0    0    0  0.00000000000E+00  0.00000000000E+00  0.12525980253E-10  0.17130000000E+03  0.17130000000E+03 0.  1.
       11    1    1    2    0    0  0.13093656840E-02  0.47416401155E-02  0.42479759391E+00  0.42482638171E+00  0.51109989000E-03 0. -1.
     -623    1    1    2    0    0 -0.21850006092E-03 -0.15846293206E-03  0.63326675903E-04  0.17130000000E+03  0.17130000000E+03 0.  1.
      622    1    1    2    0    0 -0.10908656231E-02 -0.45831771834E-02  0.35751390468E+01  0.35751736181E+01  0.15000000000E-01 0. -1.
</event>
<event>
 5   0  0.2306700E+09  0.9118800E+02  0.7818608E-02  0.1180000E+00
       11   -1    0    0    0    0  0.00000000000E+00  0.00000000000E+00  0.39999999673E+01  0.40000000000E+01  0.51109989000E-03 0. -1.
     -623   -1    0    0    0    0  0.00000000000E+00  0.00000000000E+00  0.12525980253E-10  0.17130000000E+03  0.17130000000E+03 0.  1.
       11    1    1    2    0    0  0.44486503707E-03  0.46202296118E-03  0.19668224136E-01  0.19685315150E-01  0.51109989000E-03 0. -1.
     -623    1    1    2    0    0 -0.19275112630E-03 -0.21360144759E-03  0.45338554851E-04  0.17130000000E+03  0.17130000000E+03 0.  1.
      622    1    1    2    0    0 -0.25211391077E-03 -0.24842151358E-03  0.39802864047E+01  0.39803146846E+01  0.15000000000E-01 0. -1.
</event>
<event>
 5   0  0.2306700E+09  0.9118800E+02  0.7818608E-02  0.1180000E+00
       11   -1    0    0    0    0  0.00000000000E+00  0.00000000000E+00  0.39999999673E+01  0.40000000000E+01  0.51109989000E-03 0. -1.
     -623   -1    0    0    0    0  0.00000000000E+00  0.00000000000E+00  0.12525980253E-10  0.17130000000E+03  0.17130000000E+03 0. -1.
       11    1    1    2    0    0  0.51618312528E-03 -0.22005941082E-02  0.18986758192E-01  0.19127657179E-01  0.51109989000E-03 0. -1.
     -623    1    1    2    0    0  0.31269760396E-03  0.12007484706E-03  0.16975696442E-03  0.17130000000E+03  0.17130000000E+03 0. -1.
      622    1    1    2    0    0 -0.82888072942E-03  0.20805192611E-02  0.39808434546E+01  0.39808723448E+01  0.15000000000E-01 0. -1.
</event>
<event>
 5   0  0.2306700E+09  0.9118800E+02  0.7818608E-02  0.1180000E+00
       11   -1    0    0    0    0  0.00000000000E+00  0.00000000000E+00  0.39999999673E+01  0.40000000000E+01  0.51109989000E-03 0.  1.
     -623   -1    0    0    0    0  0.00000000000E+00  0.00000000000E+00  0.12525980253E-10  0.17130000000E+03  0.17130000000E+03 0. -1.
       11    1    1    2    0    0 -0.52514165564E-03  0.14867033672E-03  0.39856179547E-02  0.40551510707E-02  0.51109989000E-03 0.  1.
     -623    1    1    2    0    0  0.96827409505E-04  0.16378496954E-03  0.97689421207E-04  0.17130000000E+03  0.17130000000E+03 0. -1.
      622    1    1    2    0    0  0.42831424603E-03 -0.31245530644E-03  0.39959166643E+01  0.39959448531E+01  0.15000000000E-01 0.  1.
</event>
<event>
 5   0  0.2306700E+09  0.9118800E+02  0.7818608E-02  0.1180000E+00
       11   -1    0    0    0    0  0.00000000000E+00  0.00000000000E+00  0.39999999673E+01  0.40000000000E+01  0.51109989000E-03 0.  1.
     -623   -1    0    0    0    0  0.00000000000E+00  0.00000000000E+00  0.12525980253E-10  0.17130000000E+03  0.17130000000E+03 0. -1.
       11    1    1    2    0    0  0.51272333927E-02 -0.18143685874E-02  0.93688017972E-02  0.10845096728E-01  0.51109989000E-03 0.  1.
     -623    1    1    2    0    0 -0.56614369898E-02 -0.38061864028E-02  0.15086017008E-02  0.17130000014E+03  0.17130000000E+03 0. -1.
      622    1    1    2    0    0  0.53420359709E-03  0.56205549903E-02  0.39891225639E+01  0.39891547608E+01  0.15000000000E-01 0.  1.
</event>
<event>
 5   0  0.2306700E+09  0.9118800E+02  0.7818608E-02  0.1180000E+00
       11   -1    0    0    0    0  0.00000000000E+00  0.00000000000E+00  0.39999999673E+01  0.40000000000E+01  0.51109989000E-03 0.  1.
     -623   -1    0    0    0    0  0.00000000000E+00  0.00000000000E+00  0.12525980253E-10  0.17130000000E+03  0.17130000000E+03 0.  1.
       11    1    1    2    0    0  0.82730952674E-03 -0.19805982231E-04  0.41528458309E-01  0.41539847187E-01  0.51109989000E-03 0.  1.
     -623    1    1    2    0    0  0.99990375400E-05 -0.28396162190E-04  0.39865338521E-04  0.17130000000E+03  0.17130000000E+03 0.  1.
      622    1    1    2    0    0 -0.83730856428E-03  0.48202144421E-04  0.39584316437E+01  0.39584601528E+01  0.15000000000E-01 0.  1.
</event>
<event>
 5   0  0.2306700E+09  0.9118800E+02  0.7818608E-02  0.1180000E+00
       11   -1    0    0    0    0  0.00000000000E+00  0.00000000000E+00  0.39999999673E+01  0.40000000000E+01  0.51109989000E-03 0.  1.
     -623   -1    0    0    0    0  0.00000000000E+00  0.00000000000E+00  0.12525980253E-10  0.17130000000E+03  0.17130000000E+03 0.  1.
       11    1    1    2    0    0  0.62489388409E-03 -0.26849398950E-03  0.74943316722E-01  0.74948145579E-01  0.51109989000E-03 0.  1.
     -623    1    1    2    0    0 -0.14619602643E-03 -0.54236409468E-03  0.33572235183E-04  0.17130000000E+03  0.17130000000E+03 0.  1.
      622    1    1    2    0    0 -0.47869785740E-03  0.81085808516E-03  0.39250230856E+01  0.39250518607E+01  0.15000000000E-01 0.  1.
</event>
<event>
 5   0  0.2306700E+09  0.9118800E+02  0.7818608E-02  0.1180000E+00
       11   -1    0    0    0    0  0.00000000000E+00  0.00000000000E+00  0.39999999673E+01  0.40000000000E+01  0.51109989000E-03 0. -1.
     -623   -1    0    0    0    0  0.00000000000E+00  0.00000000000E+00  0.12525980253E-10  0.17130000000E+03  0.17130000000E+03 0. -1.
       11    1    1    2    0    0  0.23397701669E-02  0.15613807896E-02  0.10288925001E+00  0.10292896299E+00  0.51109989000E-03 0. -1.
     -623    1    1    2    0    0  0.15973074304E-02 -0.66250489628E-03  0.70649460422E-04  0.17130000001E+03  0.17130000000E+03 0. -1.
      622    1    1    2    0    0 -0.39370775972E-02 -0.89887589336E-03  0.38970400679E+01  0.38970710283E+01  0.15000000000E-01 0. -1.
</event>
<event>
 5   0  0.2306700E+09  0.9118800E+02  0.7818608E-02  0.1180000E+00
       11   -1    0    0    0    0  0.00000000000E+00  0.00000000000E+00  0.39999999673E+01  0.40000000000E+01  0.51109989000E-03 0. -1.
     -623   -1    0    0    0    0  0.00000000000E+00  0.00000000000E+00  0.12525980253E-10  0.17130000000E+03  0.17130000000E+03 0. -1.
       11    1    1    2    0    0  0.19511375614E-02  0.30660294584E-04  0.21704502144E-01  0.21798039177E-01  0.51109989000E-03 0. -1.
     -623    1    1    2    0    0  0.28915549948E-02  0.10529163226E-02  0.12490640362E-03  0.17130000003E+03  0.17130000000E+03 0. -1.
      622    1    1    2    0    0 -0.48426925561E-02 -0.10835766172E-02  0.39781705588E+01  0.39782019331E+01  0.15000000000E-01 0. -1.
</event>
<event>
 5   0  0.2306700E+09  0.9118800E+02  0.7818608E-02  0.1180000E+00
       11   -1    0    0    0    0  0.00000000000E+00  0.00000000000E+00  0.39999999673E+01  0.40000000000E+01  0.51109989000E-03 0.  1.
     -623   -1    0    0    0    0  0.00000000000E+00  0.00000000000E+00  0.12525980253E-10  0.17130000000E+03  0.17130000000E+03 0.  1.
       11    1    1    2    0    0 -0.44608828888E-02 -0.23572473180E-02  0.58389626981E+00  0.58391829155E+00  0.51109989000E-03 0.  1.
     -623    1    1    2    0    0  0.20641025953E-02 -0.58280631380E-03  0.57041178439E-04  0.17130000001E+03  0.17130000000E+03 0.  1.
      622    1    1    2    0    0  0.23967802934E-02  0.29400536318E-02  0.34160466564E+01  0.34160816950E+01  0.15000000000E-01 0.  1.
</event>
<event>
 5   0  0.2306700E+09  0.9118800E+02  0.7818608E-02  0.1180000E+00
       11   -1    0    0    0    0  0.00000000000E+00  0.00000000000E+00  0.39999999673E+01  0.40000000000E+01  0.51109989000E-03 0. -1.
     -623   -1    0    0    0    0  0.00000000000E+00  0.00000000000E+00  0.12525980253E-10  0.17130000000E+03  0.17130000000E+03 0. -1.
       11    1    1    2    0    0  0.26969559414E-04  0.63541004979E-03  0.20178862697E-01  0.20195350854E-01  0.51109989000E-03 0. -1.
     -623    1    1    2    0    0 -0.26470928401E-03  0.20054745151E-03  0.44818562418E-04  0.17130000000E+03  0.17130000000E+03 0. -1.
      622    1    1    2    0    0  0.23773972481E-03 -0.83595750145E-03  0.39797762892E+01  0.39798046520E+01  0.15000000000E-01 0. -1.
</event>
<event>
 5   0  0.2306700E+09  0.9118800E+02  0.7818608E-02  0.1180000E+00
       11   -1    0    0    0    0  0.00000000000E+00  0.00000000000E+00  0.39999999673E+01  0.40000000000E+01  0.51109989000E-03 0. -1.
     -623   -1    0    0    0    0  0.00000000000E+00  0.00000000000E+00  0.12525980253E-10  0.17130000000E+03  0.17130000000E+03 0.  1.
       11    1    1    2    0    0  0.87506281472E-03 -0.17443939679E-02  0.14360771990E-01  0.14501780522E-01  0.51109989000E-03 0. -1.
     -623    1    1    2    0    0 -0.15130510881E-02  0.22022397957E-02  0.16930161358E-03  0.17130000002E+03  0.17130000000E+03 0.  1.
      622    1    1    2    0    0  0.63798827334E-03 -0.45784582776E-03  0.39854698938E+01  0.39854981986E+01  0.15000000000E-01 0. -1.
</event>
<event>
 5   0  0.2306700E+09  0.9118800E+02  0.7818608E-02  0.1180000E+00
       11   -1    0    0    0    0  0.00000000000E+00  0.00000000000E+00  0.39999999673E+01  0.40000000000E+01  0.51109989000E-03 0.  1.
     -623   -1    0    0    0    0  0.00000000000E+00  0.00000000000E+00  0.12525980253E-10  0.17130000000E+03  0.17130000000E+03 0. -1.
       11    1    1    2    0    0  0.16218482781E-02 -0.90938981564E-03  0.39804097098E-01  0.39850781027E-01  0.51109989000E-03 0.  1.
     -623    1    1    2    0    0 -0.69410866387E-03 -0.11535810129E-02  0.75710726943E-04  0.17130000001E+03  0.17130000000E+03 0. -1.
      622    1    1    2    0    0 -0.92773961426E-03  0.20629708285E-02  0.39601201595E+01  0.39601492137E+01  0.15000000000E-01 0.  1.
</event>
<event>
 5   0  0.2306700E+09  0.9118800E+02  0.7818608E-02  0.1180000E+00
       11   -1    0    0    0    0  0.00000000000E+00  0.00000000000E+00  0.39999999673E+01  0.40000000000E+01  0.51109989000E-03 0. -1.
     -623   -1    0    0    0    0  0.00000000000E+00  0.00000000000E+00  0.12525980253E-10  0.17130000000E+03  0.17130000000E+03 0. -1.
       11    1    1    2    0    0 -0.37978659998E-02 -0.12374124672E-01  0.10026207887E+01  0.10027044679E+01  0.51109989000E-03 0. -1.
     -623    1    1    2    0    0 -0.52772846018E-02 -0.56910179756E-02  0.18953759381E-03  0.17130000018E+03  0.17130000000E+03 0. -1.
      622    1    1    2    0    0  0.90751506042E-02  0.18065142650E-01  0.29971896429E+01  0.29972953581E+01  0.15000000000E-01 0. -1.
</event>
<event>
 5   0  0.2306700E+09  0.9118800E+02  0.7818608E-02  0.1180000E+00
       11   -1    0    0    0    0  0.00000000000E+00  0.00000000000E+00  0.39999999673E+01  0.40000000000E+01  0.51109989000E-03 0. -1.
     -623   -1    0    0    0    0  0.00000000000E+00  0.00000000000E+00  0.12525980253E-10  0.17130000000E+03  0.17130000000E+03 0.  1.
       11    1    1    2    0    0 -0.21788599761E-02 -0.12746362286E-02  0.80485198063E-01  0.80526396031E-01  0.51109989000E-03 0. -1.
     -623    1    1    2    0    0 -0.25429875622E-02 -0.70245959828E-03  0.73231516054E-04  0.17130000002E+03  0.17130000000E+03 0.  1.
      622    1    1    2    0    0  0.47218475383E-02  0.19770958268E-02  0.39194415378E+01  0.39194735836E+01  0.15000000000E-01 0. -1.
</event>
<event>
 5   0  0.2306700E+09  0.9118800E+02  0.7818608E-02  0.1180000E+00
       11   -1    0    0    0    0  0.00000000000E+00  0.00000000000E+00  0.39999999673E+01  0.40000000000E+01  0.51109989000E-03 0. -1.
     -623   -1    0    0    0    0  0.00000000000E+00  0.00000000000E+00  0.12525980253E-10  0.17130000000E+03  0.17130000000E+03 0.  1.
       11    1    1    2    0    0  0.64547786045E-02 -0.15690836605E-02  0.51182322918E+00  0.51186658939E+00  0.51109989000E-03 0. -1.
     -623    1    1    2    0    0 -0.83170953598E-02 -0.33556960210E-02  0.79788483453E-04  0.17130000023E+03  0.17130000000E+03 0.  1.
      622    1    1    2    0    0  0.18623167625E-02  0.49247796844E-02  0.34880969532E+01  0.34881331793E+01  0.15000000000E-01 0. -1.
</event>
<event>
 5   0  0.2306700E+09  0.9118800E+02  0.7818608E-02  0.1180000E+00
       11   -1    0    0    0    0  0.00000000000E+00  0.00000000000E+00  0.39999999673E+01  0.40000000000E+01  0.51109989000E-03 0.  1.
     -623   -1    0    0    0    0  0.00000000000E+00  0.00000000000E+00  0.12525980253E-10  0.17130000000E+03  0.17130000000E+03 0. -1.
       11    1    1    2    0    0  0.78292624559E-04 -0.89638896275E-03  0.71136540397E-01  0.71144066813E-01  0.51109989000E-03 0.  1.
     -623    1    1    2    0    0 -0.76002497526E-04  0.59461859725E-03  0.36140812378E-04  0.17130000000E+03  0.17130000000E+03 0. -1.
      622    1    1    2    0    0 -0.22901270322E-05  0.30177036550E-03  0.39288272862E+01  0.39288559321E+01  0.15000000000E-01 0.  1.
</event>
<event>
 5   0  0.2306700E+09  0.9118800E+02  0.7818608E-02  0.1180000E+00
       11   -1    0    0    0    0  0.00000000000E+00  0.00000000000E+00  0.39999999673E+01  0.40000000000E+01  0.51109989000E-03 0. -1.
     -623   -1    0    0    0    0  0.00000000000E+00  0.00000000000E+00  0.12525980253E-10  0.17130000000E+03  0.17130000000E+03 0.  1.
       11    1    1    2    0    0 -0.56682119279E-02  0.38816639154E-02  0.95792314710E+00  0.95794791765E+00  0.51109989000E-03 0. -1.
     -623    1    1    2    0    0  0.69691226923E-02 -0.23706548265E-02  0.62531358887E-04  0.17130000016E+03  0.17130000000E+03 0.  1.
      622    1    1    2    0    0 -0.13009107744E-02 -0.15110090855E-02  0.30420142946E+01  0.30420519299E+01  0.15000000000E-01 0. -1.
</event>
<event>
 5   0  0.2306700E+09  0.9118800E+02  0.7818608E-02  0.1180000E+00
       11   -1    0    0    0    0  0.00000000000E+00  0.00000000000E+00  0.39999999673E+01  0.40000000000E+01  0.51109989000E-03 0.  1.
     -623   -1    0    0    0    0  0.00000000000E+00  0.00000000000E+00  0.12525980253E-10  0.17130000000E+03  0.17130000000E+03 0. -1.
       11    1    1    2    0    0 -0.62170048163E-02 -0.58826217378E-02  0.80195961538E+00  0.80200545030E+00  0.51109989000E-03 0.  1.
     -623    1    1    2    0    0 -0.32015707493E-02 -0.24291891784E-02  0.10569936205E-03  0.17130000005E+03  0.17130000000E+03 0. -1.
      622    1    1    2    0    0  0.94185755684E-02  0.83118109184E-02  0.31979346562E+01  0.31979945061E+01  0.15000000000E-01 0.  0.
</event>
<event>
 5   0  0.2306700E+09  0.9118800E+02  0.7818608E-02  0.1180000E+00
       11   -1    0    0    0    0  0.00000000000E+00  0.00000000000E+00  0.39999999673E+01  0.40000000000E+01  0.51109989000E-03 0. -1.
     -623   -1    0    0    0    0  0.00000000000E+00  0.00000000000E+00  0.12525980253E-10  0.17130000000E+03  0.17130000000E+03 0.  1.
       11    1    1    2    0    0  0.10019767203E-02 -0.39729662754E-02  0.80006734652E+00  0.80007800158E+00  0.51109989000E-03 0. -1.
     -623    1    1    2    0    0  0.39184070828E-03 -0.11858565684E-02  0.50246341368E-04  0.17130000000E+03  0.17130000000E+03 0.  1.
      622    1    1    2    0    0 -0.13938174286E-02  0.51588228438E-02  0.31998823745E+01  0.31999219939E+01  0.15000000000E-01 0. -1.
</event>
<event>
 5   0  0.2306700E+09  0.9118800E+02  0.7818608E-02  0.1180000E+00
       11   -1    0    0    0    0  0.00000000000E+00  0.00000000000E+00  0.39999999673E+01  0.40000000000E+01  0.51109989000E-03 0.  1.
     -623   -1    0    0    0    0  0.00000000000E+00  0.00000000000E+00  0.12525980253E-10  0.17130000000E+03  0.17130000000E+03 0.  1.
       11    1    1    2    0    0 -0.13674113523E-02 -0.10993108999E-02  0.83862380668E+00  0.83862579775E+00  0.51109989000E-03 0.  1.
     -623    1    1    2    0    0 -0.44291588596E-03  0.65336418113E-03  0.38096033472E-04  0.17130000000E+03  0.17130000000E+03 0.  1.
      622    1    1    2    0    0  0.18103272383E-02  0.44594671881E-03  0.31613380646E+01  0.31613742004E+01  0.15000000000E-01 0.  1.
</event>
<event>
 5   0  0.2306700E+09  0.9118800E+02  0.7818608E-02  0.1180000E+00
       11   -1    0    0    0    0  0.00000000000E+00  0.00000000000E+00  0.39999999673E+01  0.40000000000E+01  0.51109989000E-03 0.  1.
     -623   -1    0    0    0    0  0.00000000000E+00  0.00000000000E+00  0.12525980253E-10  0.17130000000E+03  0.17130000000E+03 0. -1.
       11    1    1    2    0    0 -0.10630729189E-02 -0.52268587297E-03  0.45147014680E-01  0.45165445666E-01  0.51109989000E-03 0.  1.
     -623    1    1    2    0    0  0.45500407355E-03 -0.12216010166E-03  0.46944617201E-04  0.17130000000E+03  0.17130000000E+03 0. -1.
      622    1    1    2    0    0  0.60806884539E-03  0.64484597461E-03  0.39548060077E+01  0.39548345533E+01  0.15000000000E-01 0.  1.
</event>
<event>
 5   0  0.2306700E+09  0.9118800E+02  0.7818608E-02  0.1180000E+00
       11   -1    0    0    0    0  0.00000000000E+00  0.00000000000E+00  0.39999999673E+01  0.40000000000E+01  0.51109989000E-03 0. -1.
     -623   -1    0    0    0    0  0.00000000000E+00  0.00000000000E+00  0.12525980253E-10  0.17130000000E+03  0.17130000000E+03 0.  1.
       11    1    1    2    0    0 -0.46390781843E-02  0.96270534768E-02  0.41901094059E+00  0.41914750478E+00  0.51109989000E-03 0. -1.
     -623    1    1    2    0    0  0.69328066121E-02  0.92965665933E-04  0.18201619647E-03  0.17130000014E+03  0.17130000000E+03 0.  1.
      622    1    1    2    0    0 -0.22937284279E-02 -0.97200191427E-02  0.35808070106E+01  0.35808523548E+01  0.15000000000E-01 0. -1.
</event>
<event>
 5   0  0.2306700E+09  0.9118800E+02  0.7818608E-02  0.1180000E+00
       11   -1    0    0    0    0  0.00000000000E+00  0.00000000000E+00  0.39999999673E+01  0.40000000000E+01  0.51109989000E-03 0. -1.
     -623   -1    0    0    0    0  0.00000000000E+00  0.00000000000E+00  0.12525980253E-10  0.17130000000E+03  0.17130000000E+03 0.  1.
       11    1    1    2    0    0  0.41040371961E-02  0.15423503328E-02  0.25740362136E-01  0.26116076110E-01  0.51109989000E-03 0. -1.
     -623    1    1    2    0    0 -0.95385681615E-03  0.14068895268E-02  0.40634320720E-03  0.17130000001E+03  0.17130000000E+03 0.  1.
      622    1    1    2    0    0 -0.31501803800E-02 -0.29492398596E-02  0.39738532620E+01  0.39738839150E+01  0.15000000000E-01 0. -1.
</event>
<event>
 5   0  0.2306700E+09  0.9118800E+02  0.7818608E-02  0.1180000E+00
       11   -1    0    0    0    0  0.00000000000E+00  0.00000000000E+00  0.39999999673E+01  0.40000000000E+01  0.51109989000E-03 0. -1.
     -623   -1    0    0    0    0  0.00000000000E+00  0.00000000000E+00  0.12525980253E-10  0.17130000000E+03  0.17130000000E+03 0.  1.
       11    1    1    2    0    0 -0.68345137344E-03  0.42409730614E-02  0.54009961879E-01  0.54182932401E-01  0.51109989000E-03 0. -1.
     -623    1    1    2    0    0  0.27885328551E-03  0.64334860902E-04  0.20381908686E-03  0.17130000000E+03  0.17130000000E+03 0.  1.
      622    1    1    2    0    0  0.40459808784E-03 -0.43053079223E-02  0.39457861877E+01  0.39458170685E+01  0.15000000000E-01 0. -1.
</event>
<event>
 5   0  0.2306700E+09  0.9118800E+02  0.7818608E-02  0.1180000E+00
       11   -1    0    0    0    0  0.00000000000E+00  0.00000000000E+00  0.39999999673E+01  0.40000000000E+01  0.51109989000E-03 0. -1.
     -623   -1    0    0    0    0  0.00000000000E+00  0.00000000000E+00  0.12525980253E-10  0.17130000000E+03  0.17130000000E+03 0.  1.
       11    1    1    2    0    0 -0.27358471262E-02  0.27139646027E-02  0.24063991059E+00  0.24067130749E+00  0.51109989000E-03 0. -1.
     -623    1    1    2    0    0  0.46659021581E-02  0.29479351754E-02  0.66138032615E-04  0.17130000009E+03  0.17130000000E+03 0.  1.
      622    1    1    2    0    0 -0.19300550319E-02 -0.56618997781E-02  0.37592939187E+01  0.37593286036E+01  0.15000000000E-01 0. -1.
</event>
<event>
 5   0  0.2306700E+09  0.9118800E+02  0.7818608E-02  0.1180000E+00
       11   -1    0    0    0    0  0.00000000000E+00  0.00000000000E+00  0.39999999673E+01  0.40000000000E+01  0.51109989000E-03 0.  1.
     -623   -1    0    0    0    0  0.00000000000E+00  0.00000000000E+00  0.12525980253E-10  0.17130000000E+03  0.17130000000E+03 0.  1.
       11    1    1    2    0    0 -0.34436489685E-03 -0.68071005660E-03  0.14914249132E+00  0.14914531804E+00  0.51109989000E-03 0.  1.
     -623    1    1    2    0    0  0.23825780800E-03 -0.21056342006E-03  0.32113388276E-04  0.17130000000E+03  0.17130000000E+03 0.  1.
      622    1    1    2    0    0  0.10610708902E-03  0.89127347651E-03  0.38508253598E+01  0.38508546788E+01  0.15000000000E-01 0.  1.
</event>
<event>
 5   0  0.2306700E+09  0.9118800E+02  0.7818608E-02  0.1180000E+00
       11   -1    0    0    0    0  0.00000000000E+00  0.00000000000E+00  0.39999999673E+01  0.40000000000E+01  0.51109989000E-03 0. -1.
     -623   -1    0    0    0    0  0.00000000000E+00  0.00000000000E+00  0.12525980253E-10  0.17130000000E+03  0.17130000000E+03 0.  1.
       11    1    1    2    0    0  0.97431843437E-03  0.52256635442E-02  0.94835419129E-01  0.94985655761E-01  0.51109989000E-03 0. -1.
     -623    1    1    2    0    0  0.45183542074E-03 -0.12937978643E-03  0.18259988677E-03  0.17130000000E+03  0.17130000000E+03 0.  1.
      622    1    1    2    0    0 -0.14261538551E-02 -0.50962837577E-02  0.39049819487E+01  0.39050143439E+01  0.15000000000E-01 0. -1.
</event>
<event>
 5   0  0.2306700E+09  0.9118800E+02  0.7818608E-02  0.1180000E+00
       11   -1    0    0    0    0  0.00000000000E+00  0.00000000000E+00  0.39999999673E+01  0.40000000000E+01  0.51109989000E-03 0. -1.
     -623   -1    0    0    0    0  0.00000000000E+00  0.00000000000E+00  0.12525980253E-10  0.17130000000E+03  0.17130000000E+03 0.  1.
       11    1    1    2    0    0  0.26556178428E-02  0.48705601518E-03  0.47157097463E-01  0.47237089159E-01  0.51109989000E-03 0. -1.
     -623    1    1    2    0    0 -0.22767589857E-02  0.13676330216E-02  0.10889416898E-03  0.17130000002E+03  0.17130000000E+03 0.  1.
      622    1    1    2    0    0 -0.37885885709E-03 -0.18546890368E-02  0.39527339757E+01  0.39527628902E+01  0.15000000000E-01 0. -1.
</event>
<event>
 5   0  0.2306700E+09  0.9118800E+02  0.7818608E-02  0.1180000E+00
       11   -1    0    0    0    0  0.00000000000E+00  0.00000000000E+00  0.39999999673E+01  0.40000000000E+01  0.51109989000E-03 0. -1.
     -623   -1    0    0    0    0  0.00000000000E+00  0.00000000000E+00  0.12525980253E-10  0.17130000000E+03  0.17130000000E+03 0. -1.
       11    1    1    2    0    0  0.79327066338E-03  0.46997882351E-03  0.41612536233E+00  0.41612669772E+00  0.51109989000E-03 0. -1.
     -623    1    1    2    0    0  0.11511901581E-03 -0.39751961639E-04  0.32834500507E-04  0.17130000000E+03  0.17130000000E+03 0. -1.
      622    1    1    2    0    0 -0.90838967907E-03 -0.43022686191E-03  0.35838417668E+01  0.35838732985E+01  0.15000000000E-01 0. -1.
</event>
<event>
 5   0  0.2306700E+09  0.9118800E+02  0.7818608E-02  0.1180000E+00
       11   -1    0    0    0    0  0.00000000000E+00  0.00000000000E+00  0.39999999673E+01  0.40000000000E+01  0.51109989000E-03 0. -1.
     -623   -1    0    0    0    0  0.00000000000E+00  0.00000000000E+00  0.12525980253E-10  0.17130000000E+03  0.17130000000E+03 0. -1.
       11    1    1    2    0    0 -0.24265981793E-02  0.13217482960E-02  0.48684079284E-01  0.48765112464E-01  0.51109989000E-03 0. -1.
     -623    1    1    2    0    0  0.62276230564E-03  0.66954584582E-03  0.11038875871E-03  0.17130000000E+03  0.17130000000E+03 0. -1.
      622    1    1    2    0    0  0.18038358737E-02 -0.19912941419E-02  0.39512054993E+01  0.39512348851E+01  0.15000000000E-01 0. -1.
</event>
<event>
 5   0  0.2306700E+09  0.9118800E+02  0.7818608E-02  0.1180000E+00
       11   -1    0    0    0    0  0.00000000000E+00  0.00000000000E+00  0.39999999673E+01  0.40000000000E+01  0.51109989000E-03 0. -1.
     -623   -1    0    0    0    0  0.00000000000E+00  0.00000000000E+00  0.12525980253E-10  0.17130000000E+03  0.17130000000E+03 0. -1.
       11    1    1    2    0    0  0.66817780860E-02  0.56113834956E-02  0.19295197172E+00  0.19314983405E+00  0.51109989000E-03 0. -1.
     -623    1    1    2    0    0  0.32201091561E-03 -0.24180813548E-03  0.23761216964E-03  0.17130000000E+03  0.17130000000E+03 0. -1.
      622    1    1    2    0    0 -0.70037890016E-02 -0.53695753601E-02  0.38068103835E+01  0.38068501653E+01  0.15000000000E-01 0. -1.
</event>
<event>
 5   0  0.2306700E+09  0.9118800E+02  0.7818608E-02  0.1180000E+00
       11   -1    0    0    0    0  0.00000000000E+00  0.00000000000E+00  0.39999999673E+01  0.40000000000E+01  0.51109989000E-03 0. -1.
     -623   -1    0    0    0    0  0.00000000000E+00  0.00000000000E+00  0.12525980253E-10  0.17130000000E+03  0.17130000000E+03 0.  1.
       11    1    1    2    0    0  0.67893962170E-02  0.14516263045E-02  0.91266660334E+00  0.91269315391E+00  0.51109989000E-03 0. -1.
     -623    1    1    2    0    0  0.64746570491E-04 -0.32296124726E-03  0.70772870430E-04  0.17130000000E+03  0.17130000000E+03 0.  1.
      622    1    1    2    0    0 -0.68541427875E-02 -0.11286650573E-02  0.30872625912E+01  0.30873068458E+01  0.15000000000E-01 0. -1.
</event>
<event>
 5   0  0.2306700E+09  0.9118800E+02  0.7818608E-02  0.1180000E+00
       11   -1    0    0    0    0  0.00000000000E+00  0.00000000000E+00  0.39999999673E+01  0.40000000000E+01  0.51109989000E-03 0. -1.
     -623   -1    0    0    0    0  0.00000000000E+00  0.00000000000E+00  0.12525980253E-10  0.17130000000E+03  0.17130000000E+03 0. -1.
       11    1    1    2    0    0 -0.10934227810E-02 -0.97913324898E-03  0.11575758395E+01  0.11575768828E+01  0.51109989000E-03 0. -1.
     -623    1    1    2    0    0  0.15433531404E-02  0.15112465103E-02  0.40688926508E-04  0.17130000001E+03  0.17130000000E+03 0. -1.
      622    1    1    2    0    0 -0.44993035936E-03 -0.53211326134E-03  0.28423834389E+01  0.28424231035E+01  0.15000000000E-01 0. -1.
</event>
<event>
 5   0  0.2306700E+09  0.9118800E+02  0.7818608E-02  0.1180000E+00
       11   -1    0    0    0    0  0.00000000000E+00  0.00000000000E+00  0.39999999673E+01  0.40000000000E+01  0.51109989000E-03 0.  1.
     -623   -1    0    0    0    0  0.00000000000E+00  0.00000000000E+00  0.12525980253E-10  0.17130000000E+03  0.17130000000E+03 0. -1.
       11    1    1    2    0    0 -0.11301975765E-02 -0.66688193119E-03  0.27196219078E-01  0.27232657478E-01  0.51109989000E-03 0.  1.
     -623    1    1    2    0    0  0.89900901987E-03  0.83172006974E-04  0.64775653108E-04  0.17130000000E+03  0.17130000000E+03 0. -1.
      622    1    1    2    0    0  0.23118855589E-03  0.58370992414E-03  0.39727389759E+01  0.39727673434E+01  0.15000000000E-01 0.  1.
</event>
<event>
 5   0  0.2306700E+09  0.9118800E+02  0.7818608E-02  0.1180000E+00
       11   -1    0    0    0    0  0.00000000000E+00  0.00000000000E+00  0.39999999673E+01  0.40000000000E+01  0.51109989000E-03 0. -1.
     -623   -1    0    0    0    0  0.00000000000E+00  0.00000000000E+00  0.12525980253E-10  0.17130000000E+03  0.17130000000E+03 0. -1.
       11    1    1    2    0    0  0.30446259735E-03  0.28384412175E-02  0.17838082218E+00  0.17840439566E+00  0.51109989000E-03 0. -1.
     -623    1    1    2    0    0  0.26469713279E-02 -0.14769458031E-02  0.54387984120E-04  0.17130000003E+03  0.17130000000E+03 0. -1.
      622    1    1    2    0    0 -0.29514339286E-02 -0.13614954125E-02  0.38215647623E+01  0.38215955826E+01  0.15000000000E-01 0. -1.
</event>
<event>
 5   0  0.2306700E+09  0.9118800E+02  0.7818608E-02  0.1180000E+00
       11   -1    0    0    0    0  0.00000000000E+00  0.00000000000E+00  0.39999999673E+01  0.40000000000E+01  0.51109989000E-03 0. -1.
     -623   -1    0    0    0    0  0.00000000000E+00  0.00000000000E+00  0.12525980253E-10  0.17130000000E+03  0.17130000000E+03 0. -1.
       11    1    1    2    0    0  0.88851694184E-03 -0.18516172745E-02  0.15665259955E+00  0.15666689540E+00  0.51109989000E-03 0. -1.
     -623    1    1    2    0    0  0.84437886226E-04  0.36321625768E-03  0.43946566669E-04  0.17130000000E+03  0.17130000000E+03 0. -1.
      622    1    1    2    0    0 -0.97295482806E-03  0.14884010168E-02  0.38433034212E+01  0.38433331042E+01  0.15000000000E-01 0. -1.
</event>
<event>
 5   0  0.2306700E+09  0.9118800E+02  0.7818608E-02  0.1180000E+00
       11   -1    0    0    0    0  0.00000000000E+00  0.00000000000E+00  0.39999999673E+01  0.40000000000E+01  0.51109989000E-03 0.  1.
     -623   -1    0    0    0    0  0.00000000000E+00  0.00000000000E+00  0.12525980253E-10  0.17130000000E+03  0.17130000000E+03 0.  1.
       11    1    1    2    0    0  0.50393304213E-02  0.68734835257E-02  0.58806532789E+00  0.58812730825E+00  0.51109989000E-03 0.  1.
     -623    1    1    2    0    0 -0.99730596632E-03  0.39887626689E-03  0.10506924053E-03  0.17130000000E+03  0.17130000000E+03 0.  1.
      622    1    1    2    0    0 -0.40420244550E-02 -0.72723597925E-02  0.34118295702E+01  0.34118726883E+01  0.15000000000E-01 0.  1.
</event>
<event>
 5   0  0.2306700E+09  0.9118800E+02  0.7818608E-02  0.1180000E+00
       11   -1    0    0    0    0  0.00000000000E+00  0.00000000000E+00  0.39999999673E+01  0.40000000000E+01  0.51109989000E-03 0.  1.
     -623   -1    0    0    0    0  0.00000000000E+00  0.00000000000E+00  0.12525980253E-10  0.17130000000E+03  0.17130000000E+03 0.  1.
       11    1    1    2    0    0  0.47011721106E-02 -0.66109402001E-02  0.74264946501E+00  0.74269394413E+00  0.51109989000E-03 0.  1.
     -623    1    1    2    0    0  0.26208774849E-03  0.11123485315E-02  0.87410711293E-04  0.17130000000E+03  0.17130000000E+03 0.  1.
      622    1    1    2    0    0 -0.49632598591E-02  0.54985916686E-02  0.32572630916E+01  0.32573060520E+01  0.15000000000E-01 0.  1.
</event>
<event>
 5   0  0.2306700E+09  0.9118800E+02  0.7818608E-02  0.1180000E+00
       11   -1    0    0    0    0  0.00000000000E+00  0.00000000000E+00  0.39999999673E+01  0.40000000000E+01  0.51109989000E-03 0.  1.
     -623   -1    0    0    0    0  0.00000000000E+00  0.00000000000E+00  0.12525980253E-10  0.17130000000E+03  0.17130000000E+03 0.  1.
       11    1    1    2    0    0  0.31195679195E-02  0.12864866518E-02  0.58467813288E+00  0.58468809381E+00  0.51109989000E-03 0.  1.
     -623    1    1    2    0    0 -0.33994806724E-02  0.28449457947E-02  0.45436050546E-04  0.17130000006E+03  0.17130000000E+03 0.  1.
      622    1    1    2    0    0  0.27991275289E-03 -0.41314324465E-02  0.34152763984E+01  0.34153118488E+01  0.15000000000E-01 0.  1.
</event>
<event>
 5   0  0.2306700E+09  0.9118800E+02  0.7818608E-02  0.1180000E+00
       11   -1    0    0    0    0  0.00000000000E+00  0.00000000000E+00  0.39999999673E+01  0.40000000000E+01  0.51109989000E-03 0.  1.
     -623   -1    0    0    0    0  0.00000000000E+00  0.00000000000E+00  0.12525980253E-10  0.17130000000E+03  0.17130000000E+03 0.  1.
       11    1    1    2    0    0  0.67424738632E-02  0.16139173584E-02  0.95669000853E+00  0.95671526555E+00  0.51109989000E-03 0.  1.
     -623    1    1    2    0    0 -0.22235766447E-04 -0.66213678807E-04  0.70004799966E-04  0.17130000000E+03  0.17130000000E+03 0.  1.
      622    1    1    2    0    0 -0.67202380967E-02 -0.15477036796E-02  0.30432399489E+01  0.30432847293E+01  0.15000000000E-01 0.  0.
</event>
<event>
 5   0  0.2306700E+09  0.9118800E+02  0.7818608E-02  0.1180000E+00
       11   -1    0    0    0    0  0.00000000000E+00  0.00000000000E+00  0.39999999673E+01  0.40000000000E+01  0.51109989000E-03 0. -1.
     -623   -1    0    0    0    0  0.00000000000E+00  0.00000000000E+00  0.12525980253E-10  0.17130000000E+03  0.17130000000E+03 0. -1.
       11    1    1    2    0    0  0.57738507748E-04 -0.19253689113E-02  0.21060140728E+00  0.21061083626E+00  0.51109989000E-03 0. -1.
     -623    1    1    2    0    0  0.33790386970E-03  0.40963795713E-03  0.39409244955E-04  0.17130000000E+03  0.17130000000E+03 0. -1.
      622    1    1    2    0    0 -0.39564237739E-03  0.15157309542E-02  0.37893591501E+01  0.37893891622E+01  0.15000000000E-01 0. -1.
</event>
<event>
 5   0  0.2306700E+09  0.9118800E+02  0.7818608E-02  0.1180000E+00
       11   -1    0    0    0    0  0.00000000000E+00  0.00000000000E+00  0.39999999673E+01  0.40000000000E+01  0.51109989000E-03 0.  1.
     -623   -1    0    0    0    0  0.00000000000E+00  0.00000000000E+00  0.12525980253E-10  0.17130000000E+03  0.17130000000E+03 0.  1.
       11    1    1    2    0    0  0.59156131582E-04  0.44103770808E-05  0.84468800031E-02  0.84625364864E-02  0.51109989000E-03 0.  1.
     -623    1    1    2    0    0 -0.42864780326E-04 -0.25657418988E-04  0.43808673587E-04  0.17130000000E+03  0.17130000000E+03 0.  1.
      622    1    1    2    0    0 -0.16291351166E-04  0.21247041961E-04  0.39915092871E+01  0.39915374719E+01  0.15000000000E-01 0.  1.
</event>
<event>
 5   0  0.2306700E+09  0.9118800E+02  0.7818608E-02  0.1180000E+00
       11   -1    0    0    0    0  0.00000000000E+00  0.00000000000E+00  0.39999999673E+01  0.40000000000E+01  0.51109989000E-03 0.  1.
     -623   -1    0    0    0    0  0.00000000000E+00  0.00000000000E+00  0.12525980253E-10  0.17130000000E+03  0.17130000000E+03 0.  1.
       11    1    1    2    0    0  0.30224747350E-03 -0.70193754728E-04  0.21869198887E-01  0.21877371001E-01  0.51109989000E-03 0. -1.
     -623    1    1    2    0    0 -0.51901440721E-04 -0.10162281276E-04  0.36427946215E-04  0.17130000000E+03  0.17130000000E+03 0.  1.
      622    1    1    2    0    0 -0.25034603278E-03  0.80356036005E-04  0.39780943405E+01  0.39781226290E+01  0.15000000000E-01 0.  1.
</event>
<event>
 5   0  0.2306700E+09  0.9118800E+02  0.7818608E-02  0.1180000E+00
       11   -1    0    0    0    0  0.00000000000E+00  0.00000000000E+00  0.39999999673E+01  0.40000000000E+01  0.51109989000E-03 0. -1.
     -623   -1    0    0    0    0  0.00000000000E+00  0.00000000000E+00  0.12525980253E-10  0.17130000000E+03  0.17130000000E+03 0. -1.
       11    1    1    2    0    0 -0.75729029860E-03 -0.21519949774E-03  0.17918128670E+00  0.17918374515E+00  0.51109989000E-03 0. -1.
     -623    1    1    2    0    0  0.64264750747E-04  0.12259325218E-03  0.31933926225E-04  0.17130000000E+03  0.17130000000E+03 0. -1.
      622    1    1    2    0    0  0.69302554784E-03  0.92606245531E-04  0.38207867476E+01  0.38208162556E+01  0.15000000000E-01 0. -1.
</event>
<event>
 5   0  0.2306700E+09  0.9118800E+02  0.7818608E-02  0.1180000E+00
       11   -1    0    0    0    0  0.00000000000E+00  0.00000000000E+00  0.39999999673E+01  0.40000000000E+01  0.51109989000E-03 0. -1.
     -623   -1    0    0    0    0  0.00000000000E+00  0.00000000000E+00  0.12525980253E-10  0.17130000000E+03  0.17130000000E+03 0. -1.
       11    1    1    2    0    0 -0.92753604865E-03  0.46153287590E-02  0.52170705912E+00  0.52172854852E+00  0.51109989000E-03 0. -1.
     -623    1    1    2    0    0 -0.94569672924E-04  0.45491181326E-04  0.57073517663E-04  0.17130000000E+03  0.17130000000E+03 0. -1.
      622    1    1    2    0    0  0.10221057218E-02 -0.46608199404E-02  0.34782358437E+01  0.34782714605E+01  0.15000000000E-01 0. -1.
</event>
<event>
 5   0  0.2306700E+09  0.9118800E+02  0.7818608E-02  0.1180000E+00
       11   -1    0    0    0    0  0.00000000000E+00  0.00000000000E+00  0.39999999673E+01  0.40000000000E+01  0.51109989000E-03 0.  1.
     -623   -1    0    0    0    0  0.00000000000E+00  0.00000000000E+00  0.12525980253E-10  0.17130000000E+03  0.17130000000E+03 0. -1.
       11    1    1    2    0    0  0.35767516386E-02 -0.89285523447E-02  0.40488516738E+00  0.40499971875E+00  0.51109989000E-03 0.  1.
     -623    1    1    2    0    0  0.59567467664E-03  0.16290336834E-03  0.15892154148E-03  0.17130000000E+03  0.17130000000E+03 0. -1.
      622    1    1    2    0    0 -0.41724263153E-02  0.87656489763E-02  0.35949558792E+01  0.35950002809E+01  0.15000000000E-01 0.  1.
</event>
<event>
 5   0  0.2306700E+09  0.9118800E+02  0.7818608E-02  0.1180000E+00
       11   -1    0    0    0    0  0.00000000000E+00  0.00000000000E+00  0.39999999673E+01  0.40000000000E+01  0.51109989000E-03 0.  1.
     -623   -1    0    0    0    0  0.00000000000E+00  0.00000000000E+00  0.12525980253E-10  0.17130000000E+03  0.17130000000E+03 0. -1.
       11    1    1    2    0    0 -0.69866040550E-02  0.18977059072E-01  0.11571955283E+01  0.11573723227E+01  0.51109989000E-03 0.  1.
     -623    1    1    2    0    0 -0.13454369500E-02  0.32158300068E-02  0.31521986578E-03  0.17130000004E+03  0.17130000000E+03 0. -1.
      622    1    1    2    0    0  0.83320410050E-02 -0.22192889079E-01  0.28424892192E+01  0.28426276416E+01  0.15000000000E-01 0.  0.
</event>
<event>
 5   0  0.2306700E+09  0.9118800E+02  0.7818608E-02  0.1180000E+00
       11   -1    0    0    0    0  0.00000000000E+00  0.00000000000E+00  0.39999999673E+01  0.40000000000E+01  0.51109989000E-03 0. -1.
     -623   -1    0    0    0    0  0.00000000000E+00  0.00000000000E+00  0.12525980253E-10  0.17130000000E+03  0.17130000000E+03 0.  1.
       11    1    1    2    0    0  0.15394880155E-02  0.74768494117E-02  0.10483541379E+00  0.10511421648E+00  0.51109989000E-03 0. -1.
     -623    1    1    2    0    0 -0.13676166535E-02 -0.98120392831E-02  0.30864477379E-03  0.17130000029E+03  0.17130000000E+03 0.  1.
      622    1    1    2    0    0 -0.17187136204E-03  0.23351898714E-02  0.38948559088E+01  0.38948854968E+01  0.15000000000E-01 0. -1.
</event>
<event>
 5   0  0.2306700E+09  0.9118800E+02  0.7818608E-02  0.1180000E+00
       11   -1    0    0    0    0  0.00000000000E+00  0.00000000000E+00  0.39999999673E+01  0.40000000000E+01  0.51109989000E-03 0.  1.
     -623   -1    0    0    0    0  0.00000000000E+00  0.00000000000E+00  0.12525980253E-10  0.17130000000E+03  0.17130000000E+03 0. -1.
       11    1    1    2    0    0 -0.37828572769E-02 -0.64356539812E-02  0.34105365816E+00  0.34113573049E+00  0.51109989000E-03 0.  1.
     -623    1    1    2    0    0  0.77639515951E-03 -0.26378942450E-02  0.12529516264E-03  0.17130000002E+03  0.17130000000E+03 0. -1.
      622    1    1    2    0    0  0.30064621174E-02  0.90735482262E-02  0.36588210140E+01  0.36588642474E+01  0.15000000000E-01 0.  0.
</event>
<event>
 5   0  0.2306700E+09  0.9118800E+02  0.7818608E-02  0.1180000E+00
       11   -1    0    0    0    0  0.00000000000E+00  0.00000000000E+00  0.39999999673E+01  0.40000000000E+01  0.51109989000E-03 0.  1.
     -623   -1    0    0    0    0  0.00000000000E+00  0.00000000000E+00  0.12525980253E-10  0.17130000000E+03  0.17130000000E+03 0.  1.
       11    1    1    2    0    0 -0.11666165633E-01  0.34757128079E-02  0.66196559324E+00  0.66207770530E+00  0.51109989000E-03 0.  1.
     -623    1    1    2    0    0 -0.22454222147E-03 -0.17375106715E-02  0.16742428118E-03  0.17130000001E+03  0.17130000000E+03 0.  1.
      622    1    1    2    0    0  0.11890707855E-01 -0.17382021365E-02  0.33378669498E+01  0.33379222857E+01  0.15000000000E-01 0.  1.
</event>
<event>
 5   0  0.2306700E+09  0.9118800E+02  0.7818608E-02  0.1180000E+00
       11   -1    0    0    0    0  0.00000000000E+00  0.00000000000E+00  0.39999999673E+01  0.40000000000E+01  0.51109989000E-03 0. -1.
     -623   -1    0    0    0    0  0.00000000000E+00  0.00000000000E+00  0.12525980253E-10  0.17130000000E+03  0.17130000000E+03 0.  1.
       11    1    1    2    0    0 -0.42909221373E-02  0.31880370443E-02  0.17919640199E+00  0.17927684542E+00  0.51109989000E-03 0. -1.
     -623    1    1    2    0    0  0.79984860455E-02  0.21589357354E-02  0.11559634707E-03  0.17130000020E+03  0.17130000000E+03 0.  1.
      622    1    1    2    0    0 -0.37075639075E-02 -0.53469727795E-02  0.38206879687E+01  0.38207229539E+01  0.15000000000E-01 0. -1.
</event>
<event>
 5   0  0.2306700E+09  0.9118800E+02  0.7818608E-02  0.1180000E+00
       11   -1    0    0    0    0  0.00000000000E+00  0.00000000000E+00  0.39999999673E+01  0.40000000000E+01  0.51109989000E-03 0.  1.
     -623   -1    0    0    0    0  0.00000000000E+00  0.00000000000E+00  0.12525980253E-10  0.17130000000E+03  0.17130000000E+03 0. -1.
       11    1    1    2    0    0 -0.90541372273E-02 -0.28625677019E-02  0.53494329326E+00  0.53502781229E+00  0.51109989000E-03 0.  1.
     -623    1    1    2    0    0 -0.53256924847E-05 -0.22878977578E-03  0.13017706485E-03  0.17130000000E+03  0.17130000000E+03 0. -1.
      622    1    1    2    0    0  0.90594629197E-02  0.30913574776E-02  0.34649264961E+01  0.34649721866E+01  0.15000000000E-01 0.  1.
</event>
<event>
 5   0  0.2306700E+09  0.9118800E+02  0.7818608E-02  0.1180000E+00
       11   -1    0    0    0    0  0.00000000000E+00  0.00000000000E+00  0.39999999673E+01  0.40000000000E+01  0.51109989000E-03 0. -1.
     -623   -1    0    0    0    0  0.00000000000E+00  0.00000000000E+00  0.12525980253E-10  0.17130000000E+03  0.17130000000E+03 0.  1.
       11    1    1    2    0    0 -0.71689878472E-04 -0.64483968189E-02  0.57965936101E-01  0.58325791311E-01  0.51109989000E-03 0. -1.
     -623    1    1    2    0    0 -0.19405285545E-03  0.67428731720E-03  0.39260393407E-03  0.17130000000E+03  0.17130000000E+03 0.  1.
      622    1    1    2    0    0  0.26574273390E-03  0.57741095018E-02  0.39416414268E+01  0.39416742063E+01  0.15000000000E-01 0. -1.
</event>
<event>
 5   0  0.2306700E+09  0.9118800E+02  0.7818608E-02  0.1180000E+00
       11   -1    0    0    0    0  0.00000000000E+00  0.00000000000E+00  0.39999999673E+01  0.40000000000E+01  0.51109989000E-03 0. -1.
     -623   -1    0    0    0    0  0.00000000000E+00  0.00000000000E+00  0.12525980253E-10  0.17130000000E+03  0.17130000000E+03 0.  1.
       11    1    1    2    0    0 -0.36628219039E-02  0.11051419278E-02  0.15348146819E+00  0.15352999675E+00  0.51109989000E-03 0. -1.
     -623    1    1    2    0    0  0.13428597112E-03  0.37952214561E-02  0.82525733669E-04  0.17130000004E+03  0.17130000000E+03 0.  1.
      622    1    1    2    0    0  0.35285359326E-02 -0.49003633881E-02  0.38464359779E+01  0.38464699655E+01  0.15000000000E-01 0. -1.
</event>
<event>
 5   0  0.2306700E+09  0.9118800E+02  0.7818608E-02  0.1180000E+00
       11   -1    0    0    0    0  0.00000000000E+00  0.00000000000E+00  0.39999999673E+01  0.40000000000E+01  0.51109989000E-03 0.  1.
     -623   -1    0    0    0    0  0.00000000000E+00  0.00000000000E+00  0.12525980253E-10  0.17130000000E+03  0.17130000000E+03 0.  1.
       11    1    1    2    0    0 -0.63377498269E-04 -0.62359162187E-03  0.45749077594E-01  0.45756225883E-01  0.51109989000E-03 0.  1.
     -623    1    1    2    0    0  0.25372913243E-04  0.21002558169E-04  0.35612301260E-04  0.17130000000E+03  0.17130000000E+03 0.  1.
      622    1    1    2    0    0  0.38004585000E-04  0.60258906368E-03  0.39542152815E+01  0.39542437781E+01  0.15000000000E-01 0.  1.
</event>
<event>
 5   0  0.2306700E+09  0.9118800E+02  0.7818608E-02  0.1180000E+00
       11   -1    0    0    0    0  0.00000000000E+00  0.00000000000E+00  0.39999999673E+01  0.40000000000E+01  0.51109989000E-03 0.  1.
     -623   -1    0    0    0    0  0.00000000000E+00  0.00000000000E+00  0.12525980253E-10  0.17130000000E+03  0.17130000000E+03 0. -1.
       11    1    1    2    0    0 -0.41388129459E-03 -0.28313570363E-02  0.18859345540E+00  0.18861585438E+00  0.51109989000E-03 0.  1.
     -623    1    1    2    0    0  0.15496241100E-02 -0.10206381423E-02  0.54009102078E-04  0.17130000001E+03  0.17130000000E+03 0. -1.
      622    1    1    2    0    0 -0.11357428184E-02  0.38519951805E-02  0.38113525105E+01  0.38113841432E+01  0.15000000000E-01 0.  1.
</event>
<event>
 5   0  0.2306700E+09  0.9118800E+02  0.7818608E-02  0.1180000E+00
       11   -1    0    0    0    0  0.00000000000E+00  0.00000000000E+00  0.39999999673E+01  0.40000000000E+01  0.51109989000E-03 0.  1.
     -623   -1    0    0    0    0  0.00000000000E+00  0.00000000000E+00  0.12525980253E-10  0.17130000000E+03  0.17130000000E+03 0. -1.
       11    1    1    2    0    0  0.16491201408E-02  0.29924140564E-03  0.17353181989E-02  0.24661087953E-02  0.51109989000E-03 0.  1.
     -623    1    1    2    0    0 -0.56042505032E-03 -0.12217125891E-03  0.75905521931E-03  0.17130000000E+03  0.17130000000E+03 0. -1.
      622    1    1    2    0    0 -0.10886950905E-02 -0.17707014674E-03  0.39975055939E+01  0.39975338886E+01  0.15000000000E-01 0.  1.
</event>
<event>
 5   0  0.2306700E+09  0.9118800E+02  0.7818608E-02  0.1180000E+00
       11   -1    0    0    0    0  0.00000000000E+00  0.00000000000E+00  0.39999999673E+01  0.40000000000E+01  0.51109989000E-03 0. -1.
     -623   -1    0    0    0    0  0.00000000000E+00  0.00000000000E+00  0.12525980253E-10  0.17130000000E+03  0.17130000000E+03 0. -1.
       11    1    1    2    0    0 -0.50773241639E-02  0.31008097757E-02  0.40447360758E-01  0.40885748808E-01  0.51109989000E-03 0. -1.
     -623    1    1    2    0    0 -0.38836826979E-03 -0.20171408887E-02  0.47070504723E-03  0.17130000001E+03  0.17130000000E+03 0. -1.
      622    1    1    2    0    0  0.54656924337E-02 -0.10836688870E-02  0.39590819016E+01  0.39591142382E+01  0.15000000000E-01 0. -1.
</event>
<event>
 5   0  0.2306700E+09  0.9118800E+02  0.7818608E-02  0.1180000E+00
       11   -1    0    0    0    0  0.00000000000E+00  0.00000000000E+00  0.39999999673E+01  0.40000000000E+01  0.51109989000E-03 0. -1.
     -623   -1    0    0    0    0  0.00000000000E+00  0.00000000000E+00  0.12525980253E-10  0.17130000000E+03  0.17130000000E+03 0.  1.
       11    1    1    2    0    0  0.45670415179E-03 -0.20478137313E-03  0.14892128843E-01  0.14909300408E-01  0.51109989000E-03 0. -1.
     -623    1    1    2    0    0  0.26515483645E-03 -0.30956666116E-04  0.45441814258E-04  0.17130000000E+03  0.17130000000E+03 0.  1.
      622    1    1    2    0    0 -0.72185898839E-03  0.23573803927E-03  0.39850623991E+01  0.39850907018E+01  0.15000000000E-01 0. -1.
</event>
<event>
 5   0  0.2306700E+09  0.9118800E+02  0.7818608E-02  0.1180000E+00
       11   -1    0    0    0    0  0.00000000000E+00  0.00000000000E+00  0.39999999673E+01  0.40000000000E+01  0.51109989000E-03 0.  1.
     -623   -1    0    0    0    0  0.00000000000E+00  0.00000000000E+00  0.12525980253E-10  0.17130000000E+03  0.17130000000E+03 0.  1.
       11    1    1    2    0    0  0.72612058553E-03 -0.13528174674E-02  0.68374200865E-01  0.68393347123E-01  0.51109989000E-03 0.  1.
     -623    1    1    2    0    0 -0.11705271527E-02  0.11590346032E-02  0.47765798391E-04  0.17130000001E+03  0.17130000000E+03 0.  1.
      622    1    1    2    0    0  0.44440656718E-03  0.19378286412E-03  0.39315780007E+01  0.39316066449E+01  0.15000000000E-01 0.  1.
</event>
<event>
 5   0  0.2306700E+09  0.9118800E+02  0.7818608E-02  0.1180000E+00
       11   -1    0    0    0    0  0.00000000000E+00  0.00000000000E+00  0.39999999673E+01  0.40000000000E+01  0.51109989000E-03 0. -1.
     -623   -1    0    0    0    0  0.00000000000E+00  0.00000000000E+00  0.12525980253E-10  0.17130000000E+03  0.17130000000E+03 0. -1.
       11    1    1    2    0    0  0.90001107367E-02 -0.44906883121E-02  0.11288782024E+01  0.11289231264E+01  0.51109989000E-03 0. -1.
     -623    1    1    2    0    0 -0.33135761155E-03  0.11715691352E-03  0.10049427163E-03  0.17130000000E+03  0.17130000000E+03 0. -1.
      622    1    1    2    0    0 -0.86687531253E-02  0.43735313987E-02  0.28710212695E+01  0.28710768720E+01  0.15000000000E-01 0.  0.
</event>
<event>
 5   0  0.2306700E+09  0.9118800E+02  0.7818608E-02  0.1180000E+00
       11   -1    0    0    0    0  0.00000000000E+00  0.00000000000E+00  0.39999999673E+01  0.40000000000E+01  0.51109989000E-03 0.  1.
     -623   -1    0    0    0    0  0.00000000000E+00  0.00000000000E+00  0.12525980253E-10  0.17130000000E+03  0.17130000000E+03 0.  1.
       11    1    1    2    0    0  0.71374508475E-03  0.93282258356E-03  0.18114300015E+00  0.18114752915E+00  0.51109989000E-03 0.  1.
     -623    1    1    2    0    0 -0.35131144812E-03 -0.68434617140E-04  0.34070985721E-04  0.17130000000E+03  0.17130000000E+03 0.  1.
      622    1    1    2    0    0 -0.36243363621E-03 -0.86438796634E-03  0.38188229010E+01  0.38188524752E+01  0.15000000000E-01 0.  1.
</event>
<event>
 5   0  0.2306700E+09  0.9118800E+02  0.7818608E-02  0.1180000E+00
       11   -1    0    0    0    0  0.00000000000E+00  0.00000000000E+00  0.39999999673E+01  0.40000000000E+01  0.51109989000E-03 0. -1.
     -623   -1    0    0    0    0  0.00000000000E+00  0.00000000000E+00  0.12525980253E-10  0.17130000000E+03  0.17130000000E+03 0. -1.
       11    1    1    2    0    0  0.86842924715E-03  0.11020387387E-03  0.45958504645E-02  0.47063125666E-02  0.51109989000E-03 0. -1.
     -623    1    1    2    0    0 -0.13525631968E-02  0.73192670028E-03  0.13871273705E-03  0.17130000001E+03  0.17130000000E+03 0. -1.
      622    1    1    2    0    0  0.48413394966E-03 -0.84213057415E-03  0.39952654042E+01  0.39952936805E+01  0.15000000000E-01 0. -1.
</event>
<event>
 5   0  0.2306700E+09  0.9118800E+02  0.7818608E-02  0.1180000E+00
       11   -1    0    0    0    0  0.00000000000E+00  0.00000000000E+00  0.39999999673E+01  0.40000000000E+01  0.51109989000E-03 0.  1.
     -623   -1    0    0    0    0  0.00000000000E+00  0.00000000000E+00  0.12525980253E-10  0.17130000000E+03  0.17130000000E+03 0.  1.
       11    1    1    2    0    0  0.62738858445E-02 -0.82835897853E-02  0.12414469042E+00  0.12457987352E+00  0.51109989000E-03 0.  1.
     -623    1    1    2    0    0  0.28598861624E-02  0.15588719905E-02  0.48080936856E-03  0.17130000003E+03  0.17130000000E+03 0.  1.
      622    1    1    2    0    0 -0.91337720069E-02  0.67247177947E-02  0.38753744676E+01  0.38754200948E+01  0.15000000000E-01 0.  1.
</event>
<event>
 5   0  0.2306700E+09  0.9118800E+02  0.7818608E-02  0.1180000E+00
       11   -1    0    0    0    0  0.00000000000E+00  0.00000000000E+00  0.39999999673E+01  0.40000000000E+01  0.51109989000E-03 0. -1.
     -623   -1    0    0    0    0  0.00000000000E+00  0.00000000000E+00  0.12525980253E-10  0.17130000000E+03  0.17130000000E+03 0.  1.
       11    1    1    2    0    0  0.16436463951E-02  0.86020028184E-03  0.65917794996E-01  0.65945875066E-01  0.51109989000E-03 0. -1.
     -623    1    1    2    0    0  0.22339808134E-04 -0.43949810744E-03  0.57019814928E-04  0.17130000000E+03  0.17130000000E+03 0.  1.
      622    1    1    2    0    0 -0.16659862032E-02 -0.42070217395E-03  0.39340251566E+01  0.39340541284E+01  0.15000000000E-01 0. -1.
</event>
<event>
 5   0  0.2306700E+09  0.9118800E+02  0.7818608E-02  0.1180000E+00
       11   -1    0    0    0    0  0.00000000000E+00  0.00000000000E+00  0.39999999673E+01  0.40000000000E+01  0.51109989000E-03 0.  1.
     -623   -1    0    0    0    0  0.00000000000E+00  0.00000000000E+00  0.12525980253E-10  0.17130000000E+03  0.17130000000E+03 0.  1.
       11    1    1    2    0    0 -0.45770875278E-02 -0.25841012776E-03  0.14305656548E+00  0.14313091440E+00  0.51109989000E-03 0.  1.
     -623    1    1    2    0    0 -0.40684564494E-03  0.50477076406E-03  0.10671445352E-03  0.17130000000E+03  0.17130000000E+03 0.  1.
      622    1    1    2    0    0  0.49839331726E-02 -0.24636063611E-03  0.38568366859E+01  0.38568690828E+01  0.15000000000E-01 0.  1.
</event>
<event>
 5   0  0.2306700E+09  0.9118800E+02  0.7818608E-02  0.1180000E+00
       11   -1    0    0    0    0  0.00000000000E+00  0.00000000000E+00  0.39999999673E+01  0.40000000000E+01  0.51109989000E-03 0.  1.
     -623   -1    0    0    0    0  0.00000000000E+00  0.00000000000E+00  0.12525980253E-10  0.17130000000E+03  0.17130000000E+03 0.  1.
       11    1    1    2    0    0 -0.10860142200E-02 -0.46238728646E-04  0.64012829334E-02  0.65130032395E-02  0.51109989000E-03 0.  1.
     -623    1    1    2    0    0  0.15139010977E-03  0.44687558265E-03  0.13998880740E-03  0.17130000000E+03  0.17130000000E+03 0.  1.
      622    1    1    2    0    0  0.93462411038E-03 -0.40063685365E-03  0.39934586925E+01  0.39934869929E+01  0.15000000000E-01 0.  1.
</event>
<event>
 5   0  0.2306700E+09  0.9118800E+02  0.7818608E-02  0.1180000E+00
       11   -1    0    0    0    0  0.00000000000E+00  0.00000000000E+00  0.39999999673E+01  0.40000000000E+01  0.51109989000E-03 0. -1.
     -623   -1    0    0    0    0  0.00000000000E+00  0.00000000000E+00  0.12525980253E-10  0.17130000000E+03  0.17130000000E+03 0.  1.
       11    1    1    2    0    0 -0.20228203442E-03  0.18221356629E-03  0.84007408539E-02  0.84206763266E-02  0.51109989000E-03 0. -1.
     -623    1    1    2    0    0  0.19540850842E-04 -0.98237319463E-04  0.48092367466E-04  0.17130000000E+03  0.17130000000E+03 0.  1.
      622    1    1    2    0    0  0.18274118360E-03 -0.83976246925E-04  0.39915511301E+01  0.39915793196E+01  0.15000000000E-01 0. -1.
</event>
<event>
 5   0  0.2306700E+09  0.9118800E+02  0.7818608E-02  0.1180000E+00
       11   -1    0    0    0    0  0.00000000000E+00  0.00000000000E+00  0.39999999673E+01  0.40000000000E+01  0.51109989000E-03 0.  1.
     -623   -1    0    0    0    0  0.00000000000E+00  0.00000000000E+00  0.12525980253E-10  0.17130000000E+03  0.17130000000E+03 0. -1.
       11    1    1    2    0    0  0.82522876555E-03  0.20301690191E-02  0.70857026810E-01  0.70892750391E-01  0.51109989000E-03 0.  1.
     -623    1    1    2    0    0 -0.22632306235E-02 -0.31438724732E-03  0.64976533021E-04  0.17130000002E+03  0.17130000000E+03 0. -1.
      622    1    1    2    0    0  0.14380018580E-02 -0.17157817718E-02  0.39290779640E+01  0.39291072344E+01  0.15000000000E-01 0.  1.
</event>
<event>
 5   0  0.2306700E+09  0.9118800E+02  0.7818608E-02  0.1180000E+00
       11   -1    0    0    0    0  0.00000000000E+00  0.00000000000E+00  0.39999999673E+01  0.40000000000E+01  0.51109989000E-03 0. -1.
     -623   -1    0    0    0    0  0.00000000000E+00  0.00000000000E+00  0.12525980253E-10  0.17130000000E+03  0.17130000000E+03 0. -1.
       11    1    1    2    0    0  0.16987134612E-02  0.40214216591E-02  0.72070949621E+00  0.72072289863E+00  0.51109989000E-03 0. -1.
     -623    1    1    2    0    0  0.40753472373E-04 -0.83877686938E-04  0.50501680772E-04  0.17130000000E+03  0.17130000000E+03 0. -1.
      622    1    1    2    0    0 -0.17394669336E-02 -0.39375439722E-02  0.32792399695E+01  0.32792771013E+01  0.15000000000E-01 0. -1.
</event>
<event>
 5   0  0.2306700E+09  0.9118800E+02  0.7818608E-02  0.1180000E+00
       11   -1    0    0    0    0  0.00000000000E+00  0.00000000000E+00  0.39999999673E+01  0.40000000000E+01  0.51109989000E-03 0.  1.
     -623   -1    0    0    0    0  0.00000000000E+00  0.00000000000E+00  0.12525980253E-10  0.17130000000E+03  0.17130000000E+03 0. -1.
       11    1    1    2    0    0 -0.84994628267E-03  0.74461787006E-02  0.35987418320E+00  0.35995257596E+00  0.51109989000E-03 0.  1.
     -623    1    1    2    0    0  0.73149938957E-03  0.86285930300E-03  0.11875565003E-03  0.17130000000E+03  0.17130000000E+03 0. -1.
      622    1    1    2    0    0  0.11844689254E-03 -0.83090380043E-02  0.36400070316E+01  0.36400474234E+01  0.15000000000E-01 0.  1.
</event>
<event>
 5   0  0.2306700E+09  0.9118800E+02  0.7818608E-02  0.1180000E+00
       11   -1    0    0    0    0  0.00000000000E+00  0.00000000000E+00  0.39999999673E+01  0.40000000000E+01  0.51109989000E-03 0. -1.
     -623   -1    0    0    0    0  0.00000000000E+00  0.00000000000E+00  0.12525980253E-10  0.17130000000E+03  0.17130000000E+03 0.  1.
       11    1    1    2    0    0 -0.26513577694E-02  0.14061772015E-02  0.21090493965E+00  0.21092691109E+00  0.51109989000E-03 0. -1.
     -623    1    1    2    0    0  0.16859353541E-02  0.20513444466E-02  0.53350639362E-04  0.17130000002E+03  0.17130000000E+03 0.  1.
      622    1    1    2    0    0  0.96542241534E-03 -0.34575216481E-02  0.37890416771E+01  0.37890730683E+01  0.15000000000E-01 0. -1.
</event>
<event>
 5   0  0.2306700E+09  0.9118800E+02  0.7818608E-02  0.1180000E+00
       11   -1    0    0    0    0  0.00000000000E+00  0.00000000000E+00  0.39999999673E+01  0.40000000000E+01  0.51109989000E-03 0. -1.
     -623   -1    0    0    0    0  0.00000000000E+00  0.00000000000E+00  0.12525980253E-10  0.17130000000E+03  0.17130000000E+03 0. -1.
       11    1    1    2    0    0 -0.10105834927E-01  0.37132152048E-03  0.18530637524E+00  0.18558281091E+00  0.51109989000E-03 0. -1.
     -623    1    1    2    0    0  0.12105107898E-02 -0.38402452145E-02  0.31789366784E-03  0.17130000005E+03  0.17130000000E+03 0. -1.
      622    1    1    2    0    0  0.88953241369E-02  0.34689236940E-02  0.38143756985E+01  0.38144171415E+01  0.15000000000E-01 0. -1.
</event>
<event>
 5   0  0.2306700E+09  0.9118800E+02  0.7818608E-02  0.1180000E+00
       11   -1    0    0    0    0  0.00000000000E+00  0.00000000000E+00  0.39999999673E+01  0.40000000000E+01  0.51109989000E-03 0.  1.
     -623   -1    0    0    0    0  0.00000000000E+00  0.00000000000E+00  0.12525980253E-10  0.17130000000E+03  0.17130000000E+03 0.  1.
       11    1    1    2    0    0  0.55117567450E-03 -0.45361339936E-03  0.19210158330E-01  0.19230209721E-01  0.51109989000E-03 0.  1.
     -623    1    1    2    0    0 -0.95997372898E-03  0.79986860402E-03  0.48320330071E-04  0.17130000000E+03  0.17130000000E+03 0.  1.
      622    1    1    2    0    0  0.40879805713E-03 -0.34625520687E-03  0.39807414997E+01  0.39807697968E+01  0.15000000000E-01 0.  1.
</event>
<event>
 5   0  0.2306700E+09  0.9118800E+02  0.7818608E-02  0.1180000E+00
       11   -1    0    0    0    0  0.00000000000E+00  0.00000000000E+00  0.39999999673E+01  0.40000000000E+01  0.51109989000E-03 0. -1.
     -623   -1    0    0    0    0  0.00000000000E+00  0.00000000000E+00  0.12525980253E-10  0.17130000000E+03  0.17130000000E+03 0. -1.
       11    1    1    2    0    0 -0.18262373795E-02  0.11734210697E-02  0.83668629840E+00  0.83668927041E+00  0.51109989000E-03 0. -1.
     -623    1    1    2    0    0 -0.30428783775E-05  0.23516870622E-03  0.39346280896E-04  0.17130000000E+03  0.17130000000E+03 0. -1.
      622    1    1    2    0    0  0.18292802579E-02 -0.14085897761E-02  0.31632743249E+01  0.31633107316E+01  0.15000000000E-01 0. -1.
</event>
<event>
 5   0  0.2306700E+09  0.9118800E+02  0.7818608E-02  0.1180000E+00
       11   -1    0    0    0    0  0.00000000000E+00  0.00000000000E+00  0.39999999673E+01  0.40000000000E+01  0.51109989000E-03 0. -1.
     -623   -1    0    0    0    0  0.00000000000E+00  0.00000000000E+00  0.12525980253E-10  0.17130000000E+03  0.17130000000E+03 0. -1.
       11    1    1    2    0    0 -0.17978558908E-03 -0.42124148695E-03  0.10030985293E-01  0.10054434659E-01  0.51109989000E-03 0. -1.
     -623    1    1    2    0    0  0.66843964557E-03 -0.22338369359E-03  0.51696152912E-04  0.17130000000E+03  0.17130000000E+03 0. -1.
      622    1    1    2    0    0 -0.48865405637E-03  0.64462518050E-03  0.39899172852E+01  0.39899455632E+01  0.15000000000E-01 0. -1.
</event>
<event>
 5   0  0.2306700E+09  0.9118800E+02  0.7818608E-02  0.1180000E+00
       11   -1    0    0    0    0  0.00000000000E+00  0.00000000000E+00  0.39999999673E+01  0.40000000000E+01  0.51109989000E-03 0. -1.
     -623   -1    0    0    0    0  0.00000000000E+00  0.00000000000E+00  0.12525980253E-10  0.17130000000E+03  0.17130000000E+03 0.  1.
       11    1    1    2    0    0 -0.61221407144E-03 -0.50574323675E-03  0.70263960156E+00  0.70264023617E+00  0.51109989000E-03 0. -1.
     -623    1    1    2    0    0 -0.68154627930E-03 -0.82699479628E-03  0.35246859157E-04  0.17130000000E+03  0.17130000000E+03 0.  1.
      622    1    1    2    0    0  0.12937603507E-02  0.13327380330E-02  0.32973251189E+01  0.32973597605E+01  0.15000000000E-01 0. -1.
</event>
<event>
 5   0  0.2306700E+09  0.9118800E+02  0.7818608E-02  0.1180000E+00
       11   -1    0    0    0    0  0.00000000000E+00  0.00000000000E+00  0.39999999673E+01  0.40000000000E+01  0.51109989000E-03 0.  1.
     -623   -1    0    0    0    0  0.00000000000E+00  0.00000000000E+00  0.12525980253E-10  0.17130000000E+03  0.17130000000E+03 0. -1.
       11    1    1    2    0    0  0.14763992760E-01  0.52151141694E-02  0.22240016703E+00  0.22295126914E+00  0.51109989000E-03 0.  1.
     -623    1    1    2    0    0 -0.11115713727E-04  0.23825972096E-03  0.61360509131E-03  0.17130000000E+03  0.17130000000E+03 0. -1.
      622    1    1    2    0    0 -0.14752877046E-01 -0.54533738903E-02  0.37769861952E+01  0.37770487296E+01  0.15000000000E-01 0.  1.
</event>
<event>
 5   0  0.2306700E+09  0.9118800E+02  0.7818608E-02  0.1180000E+00
       11   -1    0    0    0    0  0.00000000000E+00  0.00000000000E+00  0.39999999673E+01  0.40000000000E+01  0.51109989000E-03 0.  1.
     -623   -1    0    0    0    0  0.00000000000E+00  0.00000000000E+00  0.12525980253E-10  0.17130000000E+03  0.17130000000E+03 0.  1.
       11    1    1    2    0    0 -0.20863315419E-02  0.12555808408E-03  0.13404645553E+00  0.13406372367E+00  0.51109989000E-03 0.  1.
     -623    1    1    2    0    0  0.86852164274E-04  0.44382911642E-04  0.46856781170E-04  0.17130000000E+03  0.17130000000E+03 0.  1.
      622    1    1    2    0    0  0.19994793777E-02 -0.16994099573E-03  0.38659066551E+01  0.38659362763E+01  0.15000000000E-01 0.  1.
</event>
<event>
 5   0  0.2306700E+09  0.9118800E+02  0.7818608E-02  0.1180000E+00
       11   -1    0    0    0    0  0.00000000000E+00  0.00000000000E+00  0.39999999673E+01  0.40000000000E+01  0.51109989000E-03 0.  1.
     -623   -1    0    0    0    0  0.00000000000E+00  0.00000000000E+00  0.12525980253E-10  0.17130000000E+03  0.17130000000E+03 0. -1.
       11    1    1    2    0    0  0.75708701419E-03 -0.31183415306E-03  0.44151872895E-01  0.44162422086E-01  0.51109989000E-03 0.  1.
     -623    1    1    2    0    0  0.52905939698E-04  0.70440516412E-04  0.39045956410E-04  0.17130000000E+03  0.17130000000E+03 0. -1.
      622    1    1    2    0    0 -0.80999295394E-03  0.24139363658E-03  0.39558090523E+01  0.39558375817E+01  0.15000000000E-01 0.  1.
</event>
<event>
 5   0  0.2306700E+09  0.9118800E+02  0.7818608E-02  0.1180000E+00
       11   -1    0    0    0    0  0.00000000000E+00  0.00000000000E+00  0.39999999673E+01  0.40000000000E+01  0.51109989000E-03 0. -1.
     -623   -1    0    0    0    0  0.00000000000E+00  0.00000000000E+00  0.12525980253E-10  0.17130000000E+03  0.17130000000E+03 0.  1.
       11    1    1    2    0    0 -0.13052101392E-02 -0.33435635800E-02  0.54055166346E+00  0.54056382147E+00  0.51109989000E-03 0. -1.
     -623    1    1    2    0    0  0.58381542354E-02 -0.11770936543E-02  0.50672369273E-04  0.17130000010E+03  0.17130000000E+03 0.  1.
      622    1    1    2    0    0 -0.45329440962E-02  0.45206572343E-02  0.34593976315E+01  0.34594360750E+01  0.15000000000E-01 0. -1.
</event>
<event>
 5   0  0.2306700E+09  0.9118800E+02  0.7818608E-02  0.1180000E+00
       11   -1    0    0    0    0  0.00000000000E+00  0.00000000000E+00  0.39999999673E+01  0.40000000000E+01  0.51109989000E-03 0.  1.
     -623   -1    0    0    0    0  0.00000000000E+00  0.00000000000E+00  0.12525980253E-10  0.17130000000E+03  0.17130000000E+03 0.  1.
       11    1    1    2    0    0 -0.15119316743E-02 -0.31909242392E-03  0.75038964296E+00  0.75039140803E+00  0.51109989000E-03 0.  1.
     -623    1    1    2    0    0 -0.20409877775E-03 -0.27765324374E-03  0.36860407524E-04  0.17130000000E+03  0.17130000000E+03 0.  1.
      622    1    1    2    0    0  0.17160304520E-02  0.59674566766E-03  0.32495734640E+01  0.32496085916E+01  0.15000000000E-01 0.  1.
</event>
<event>
 5   0  0.2306700E+09  0.9118800E+02  0.7818608E-02  0.1180000E+00
       11   -1    0    0    0    0  0.00000000000E+00  0.00000000000E+00  0.39999999673E+01  0.40000000000E+01  0.51109989000E-03 0. -1.
     -623   -1    0    0    0    0  0.00000000000E+00  0.00000000000E+00  0.12525980253E-10  0.17130000000E+03  0.17130000000E+03 0.  1.
       11    1    1    2    0    0  0.22377919912E-03  0.25228007337E-03  0.35032707980E-01  0.35038058935E-01  0.51109989000E-03 0. -1.
     -623    1    1    2    0    0 -0.78809252240E-04 -0.71196658200E-04  0.33698775742E-04  0.17130000000E+03  0.17130000000E+03 0.  1.
      622    1    1    2    0    0 -0.14496994696E-03 -0.18108341525E-03  0.39649335561E+01  0.39649619365E+01  0.15000000000E-01 0. -1.
</event>
<event>
 5   0  0.2306700E+09  0.9118800E+02  0.7818608E-02  0.1180000E+00
       11   -1    0    0    0    0  0.00000000000E+00  0.00000000000E+00  0.39999999673E+01  0.40000000000E+01  0.51109989000E-03 0. -1.
     -623   -1    0    0    0    0  0.00000000000E+00  0.00000000000E+00  0.12525980253E-10  0.17130000000E+03  0.17130000000E+03 0.  1.
       11    1    1    2    0    0  0.28839588142E-02 -0.77134453347E-02  0.43554189802E+00  0.43562004156E+00  0.51109989000E-03 0. -1.
     -623    1    1    2    0    0  0.91057733867E-03  0.78079008256E-03  0.11843938381E-03  0.17130000000E+03  0.17130000000E+03 0.  1.
      622    1    1    2    0    0 -0.37945361528E-02  0.69326552521E-02  0.35643396300E+01  0.35643799542E+01  0.15000000000E-01 0. -1.
</event>
<event>
 5   0  0.2306700E+09  0.9118800E+02  0.7818608E-02  0.1180000E+00
       11   -1    0    0    0    0  0.00000000000E+00  0.00000000000E+00  0.39999999673E+01  0.40000000000E+01  0.51109989000E-03 0. -1.
     -623   -1    0    0    0    0  0.00000000000E+00  0.00000000000E+00  0.12525980253E-10  0.17130000000E+03  0.17130000000E+03 0. -1.
       11    1    1    2    0    0 -0.66166318349E-02 -0.46976977379E-02  0.51457362693E+00  0.51463785999E+00  0.51109989000E-03 0. -1.
     -623    1    1    2    0    0 -0.48057192694E-04  0.89594082207E-04  0.10589692851E-03  0.17130000000E+03  0.17130000000E+03 0. -1.
      622    1    1    2    0    0  0.66646890276E-02  0.46081036557E-02  0.34853204435E+01  0.34853621399E+01  0.15000000000E-01 0. -1.
</event>
<event>
 5   0  0.2306700E+09  0.9118800E+02  0.7818608E-02  0.1180000E+00
       11   -1    0    0    0    0  0.00000000000E+00  0.00000000000E+00  0.39999999673E+01  0.40000000000E+01  0.51109989000E-03 0.  1.
     -623   -1    0    0    0    0  0.00000000000E+00  0.00000000000E+00  0.12525980253E-10  0.17130000000E+03  0.17130000000E+03 0. -1.
       11    1    1    2    0    0  0.99375643070E-02 -0.18709376726E-03  0.85894333329E+00  0.85900099023E+00  0.51109989000E-03 0.  1.
     -623    1    1    2    0    0 -0.46897150347E-03  0.18516351253E-02  0.10816468688E-03  0.17130000001E+03  0.17130000000E+03 0. -1.
      622    1    1    2    0    0 -0.94685928033E-02 -0.16645413588E-02  0.31409484711E+01  0.31409990008E+01  0.15000000000E-01 0.  1.
</event>
<event>
 5   0  0.2306700E+09  0.9118800E+02  0.7818608E-02  0.1180000E+00
       11   -1    0    0    0    0  0.00000000000E+00  0.00000000000E+00  0.39999999673E+01  0.40000000000E+01  0.51109989000E-03 0.  1.
     -623   -1    0    0    0    0  0.00000000000E+00  0.00000000000E+00  0.12525980253E-10  0.17130000000E+03  0.17130000000E+03 0.  1.
       11    1    1    2    0    0 -0.17583280038E-02  0.34908297451E-02  0.11065253656E+00  0.11072272884E+00  0.51109989000E-03 0.  1.
     -623    1    1    2    0    0 -0.19723750967E-03  0.37475619119E-04  0.10117764179E-03  0.17130000000E+03  0.17130000000E+03 0.  1.
      622    1    1    2    0    0  0.19555655136E-02 -0.35283053643E-02  0.38892462560E+01  0.38892772738E+01  0.15000000000E-01 0.  1.
</event>
<event>
 5   0  0.2306700E+09  0.9118800E+02  0.7818608E-02  0.1180000E+00
       11   -1    0    0    0    0  0.00000000000E+00  0.00000000000E+00  0.39999999673E+01  0.40000000000E+01  0.51109989000E-03 0.  1.
     -623   -1    0    0    0    0  0.00000000000E+00  0.00000000000E+00  0.12525980253E-10  0.17130000000E+03  0.17130000000E+03 0. -1.
       11    1    1    2    0    0 -0.89384079600E-03 -0.63357133561E-05  0.35812276445E-01  0.35827075737E-01  0.51109989000E-03 0. -1.
     -623    1    1    2    0    0 -0.31880586098E-05  0.41584871772E-03  0.43269094409E-04  0.17130000000E+03  0.17130000000E+03 0. -1.
      622    1    1    2    0    0  0.89702885461E-03 -0.40951300436E-03  0.39641444218E+01  0.39641729238E+01  0.15000000000E-01 0.  1.
</event>
<event>
 5   0  0.2306700E+09  0.9118800E+02  0.7818608E-02  0.1180000E+00
       11   -1    0    0    0    0  0.00000000000E+00  0.00000000000E+00  0.39999999673E+01  0.40000000000E+01  0.51109989000E-03 0.  1.
     -623   -1    0    0    0    0  0.00000000000E+00  0.00000000000E+00  0.12525980253E-10  0.17130000000E+03  0.17130000000E+03 0. -1.
       11    1    1    2    0    0  0.48377070265E-02  0.81486404169E-02  0.49426321993E-01  0.50329179181E-01  0.51109989000E-03 0.  1.
     -623    1    1    2    0    0 -0.29048760375E-02 -0.44193374087E-02  0.93362578077E-03  0.17130000008E+03  0.17130000000E+03 0. -1.
      622    1    1    2    0    0 -0.19328309890E-02 -0.37293030082E-02  0.39496400196E+01  0.39496707366E+01  0.15000000000E-01 0.  1.
</event>
<event>
 5   0  0.2306700E+09  0.9118800E+02  0.7818608E-02  0.1180000E+00
       11   -1    0    0    0    0  0.00000000000E+00  0.00000000000E+00  0.39999999673E+01  0.40000000000E+01  0.51109989000E-03 0. -1.
     -623   -1    0    0    0    0  0.00000000000E+00  0.00000000000E+00  0.12525980253E-10  0.17130000000E+03  0.17130000000E+03 0. -1.
       11    1    1    2    0    0 -0.70923711109E-04 -0.40498209697E-02  0.82719234017E+00  0.82720241473E+00  0.51109989000E-03 0. -1.
     -623    1    1    2    0    0  0.65722157383E-02  0.12082308506E-02  0.53563521853E-04  0.17130000013E+03  0.17130000000E+03 0. -1.
      622    1    1    2    0    0 -0.65012920326E-02  0.28415901181E-02  0.31727540670E+01  0.31727974582E+01  0.15000000000E-01 0. -1.
</event>
<event>
 5   0  0.2306700E+09  0.9118800E+02  0.7818608E-02  0.1180000E+00
       11   -1    0    0    0    0  0.00000000000E+00  0.00000000000E+00  0.39999999673E+01  0.40000000000E+01  0.51109989000E-03 0.  1.
     -623   -1    0    0    0    0  0.00000000000E+00  0.00000000000E+00  0.12525980253E-10  0.17130000000E+03  0.17130000000E+03 0. -1.
       11    1    1    2    0    0 -0.14035750120E-02 -0.49304979301E-03  0.40159766848E+00  0.40160074909E+00  0.51109989000E-03 0.  1.
     -623    1    1    2    0    0  0.38870009625E-02 -0.98401728552E-05  0.35248228623E-04  0.17130000004E+03  0.17130000000E+03 0. -1.
      622    1    1    2    0    0 -0.24834259619E-02  0.50288996589E-03  0.35983670624E+01  0.35983992185E+01  0.15000000000E-01 0.  1.
</event>
<event>
 5   0  0.2306700E+09  0.9118800E+02  0.7818608E-02  0.1180000E+00
       11   -1    0    0    0    0  0.00000000000E+00  0.00000000000E+00  0.39999999673E+01  0.40000000000E+01  0.51109989000E-03 0.  1.
     -623   -1    0    0    0    0  0.00000000000E+00  0.00000000000E+00  0.12525980253E-10  0.17130000000E+03  0.17130000000E+03 0. -1.
       11    1    1    2    0    0  0.38343930466E-02  0.47374401159E-02  0.36928510494E+00  0.36933574950E+00  0.51109989000E-03 0.  1.
     -623    1    1    2    0    0  0.32147634419E-03  0.47708527102E-03  0.87722358861E-04  0.17130000000E+03  0.17130000000E+03 0. -1.
      622    1    1    2    0    0 -0.41558693908E-02 -0.52145253869E-02  0.36306271401E+01  0.36306642495E+01  0.15000000000E-01 0.  1.
</event>
<event>
 5   0  0.2306700E+09  0.9118800E+02  0.7818608E-02  0.1180000E+00
       11   -1    0    0    0    0  0.00000000000E+00  0.00000000000E+00  0.39999999673E+01  0.40000000000E+01  0.51109989000E-03 0.  1.
     -623   -1    0    0    0    0  0.00000000000E+00  0.00000000000E+00  0.12525980253E-10  0.17130000000E+03  0.17130000000E+03 0.  1.
       11    1    1    2    0    0  0.10883625161E-02 -0.78323421069E-03  0.47012919506E-01  0.47034814878E-01  0.51109989000E-03 0.  1.
     -623    1    1    2    0    0 -0.99068465326E-03  0.17370704548E-02  0.50450448413E-04  0.17130000001E+03  0.17130000000E+03 0.  1.
      622    1    1    2    0    0 -0.97677862889E-04 -0.95383624406E-03  0.39529365974E+01  0.39529651734E+01  0.15000000000E-01 0.  1.
</event>
<event>
 5   0  0.2306700E+09  0.9118800E+02  0.7818608E-02  0.1180000E+00
       11   -1    0    0    0    0  0.00000000000E+00  0.00000000000E+00  0.39999999673E+01  0.40000000000E+01  0.51109989000E-03 0. -1.
     -623   -1    0    0    0    0  0.00000000000E+00  0.00000000000E+00  0.12525980253E-10  0.17130000000E+03  0.17130000000E+03 0.  1.
       11    1    1    2    0    0  0.14545066800E-02  0.28906376042E-03  0.24652399707E-01  0.24702250544E-01  0.51109989000E-03 0. -1.
     -623    1    1    2    0    0 -0.59316232988E-03  0.27440654357E-03  0.78252579871E-04  0.17130000000E+03  0.17130000000E+03 0.  1.
      622    1    1    2    0    0 -0.86134434971E-03 -0.56347030417E-03  0.39752693177E+01  0.39752977509E+01  0.15000000000E-01 0. -1.
</event>
<event>
 5   0  0.2306700E+09  0.9118800E+02  0.7818608E-02  0.1180000E+00
       11   -1    0    0    0    0  0.00000000000E+00  0.00000000000E+00  0.39999999673E+01  0.40000000000E+01  0.51109989000E-03 0. -1.
     -623   -1    0    0    0    0  0.00000000000E+00  0.00000000000E+00  0.12525980253E-10  0.17130000000E+03  0.17130000000E+03 0.  1.
       11    1    1    2    0    0 -0.11922813965E-02  0.17614431403E-02  0.43920946013E-01  0.43975390147E-01  0.51109989000E-03 0. -1.
     -623    1    1    2    0    0  0.18239840791E-03  0.12006712593E-03  0.83425728638E-04  0.17130000000E+03  0.17130000000E+03 0.  1.
      622    1    1    2    0    0  0.10098829886E-02 -0.18815102662E-02  0.39559955964E+01  0.39560246104E+01  0.15000000000E-01 0. -1.
</event>
<event>
 5   0  0.2306700E+09  0.9118800E+02  0.7818608E-02  0.1180000E+00
       11   -1    0    0    0    0  0.00000000000E+00  0.00000000000E+00  0.39999999673E+01  0.40000000000E+01  0.51109989000E-03 0.  1.
     -623   -1    0    0    0    0  0.00000000000E+00  0.00000000000E+00  0.12525980253E-10  0.17130000000E+03  0.17130000000E+03 0. -1.
       11    1    1    2    0    0  0.21196042112E-02 -0.32826199973E-02  0.11360388377E+01  0.11360456726E+01  0.51109989000E-03 0.  1.
     -623    1    1    2    0    0  0.21283819458E-03  0.15469964199E-03  0.48742051630E-04  0.17130000000E+03  0.17130000000E+03 0. -1.
      622    1    1    2    0    0 -0.23324424058E-02  0.31279203553E-02  0.28639123876E+01  0.28639543272E+01  0.15000000000E-01 0.  1.
</event>
<event>
 5   0  0.2306700E+09  0.9118800E+02  0.7818608E-02  0.1180000E+00
       11   -1    0    0    0    0  0.00000000000E+00  0.00000000000E+00  0.39999999673E+01  0.40000000000E+01  0.51109989000E-03 0.  1.
     -623   -1    0    0    0    0  0.00000000000E+00  0.00000000000E+00  0.12525980253E-10  0.17130000000E+03  0.17130000000E+03 0.  1.
       11    1    1    2    0    0 -0.40258983809E-03  0.52666586957E-03  0.40454591670E-01  0.40463250793E-01  0.51109989000E-03 0. -1.
     -623    1    1    2    0    0 -0.20570669266E-04 -0.20587399327E-03  0.37074735723E-04  0.17130000000E+03  0.17130000000E+03 0.  1.
      622    1    1    2    0    0  0.42316050736E-03 -0.32079187630E-03  0.39595083010E+01  0.39595367491E+01  0.15000000000E-01 0.  1.
</event>
<event>
 5   0  0.2306700E+09  0.9118800E+02  0.7818608E-02  0.1180000E+00
       11   -1    0    0    0    0  0.00000000000E+00  0.00000000000E+00  0.39999999673E+01  0.40000000000E+01  0.51109989000E-03 0.  1.
     -623   -1    0    0    0    0  0.00000000000E+00  0.00000000000E+00  0.12525980253E-10  0.17130000000E+03  0.17130000000E+03 0.  1.
       11    1    1    2    0    0 -0.16316745635E-02 -0.88520731300E-03  0.10286751848E+00  0.10288553608E+00  0.51109989000E-03 0.  1.
     -623    1    1    2    0    0  0.43718829633E-05 -0.81216023105E-04  0.47312190245E-04  0.17130000000E+03  0.17130000000E+03 0.  1.
      622    1    1    2    0    0  0.16273026805E-02  0.96642333610E-03  0.38970851367E+01  0.38971144639E+01  0.15000000000E-01 0.  1.
</event>
<event>
 5   0  0.2306700E+09  0.9118800E+02  0.7818608E-02  0.1180000E+00
       11   -1    0    0    0    0  0.00000000000E+00  0.00000000000E+00  0.39999999673E+01  0.40000000000E+01  0.51109989000E-03 0.  1.
     -623   -1    0    0    0    0  0.00000000000E+00  0.00000000000E+00  0.12525980253E-10  0.17130000000E+03  0.17130000000E+03 0.  1.
       11    1    1    2    0    0  0.48882936299E-02  0.11771838865E-01  0.70421683803E+00  0.70433237026E+00  0.51109989000E-03 0.  1.
     -623    1    1    2    0    0  0.56404844960E-03 -0.16138568912E-02  0.16980912271E-03  0.17130000001E+03  0.17130000000E+03 0.  1.
      622    1    1    2    0    0 -0.54523420795E-02 -0.10157981974E-01  0.32956133202E+01  0.32956676211E+01  0.15000000000E-01 0.  1.
</event>
<event>
 5   0  0.2306700E+09  0.9118800E+02  0.7818608E-02  0.1180000E+00
       11   -1    0    0    0    0  0.00000000000E+00  0.00000000000E+00  0.39999999673E+01  0.40000000000E+01  0.51109989000E-03 0. -1.
     -623   -1    0    0    0    0  0.00000000000E+00  0.00000000000E+00  0.12525980253E-10  0.17130000000E+03  0.17130000000E+03 0. -1.
       11    1    1    2    0    0 -0.74763759790E-03 -0.22699253460E-02  0.24164276391E-01  0.24287548243E-01  0.51109989000E-03 0. -1.
     -623    1    1    2    0    0 -0.10380243646E-03 -0.89965948023E-04  0.15232781693E-03  0.17130000000E+03  0.17130000000E+03 0. -1.
      622    1    1    2    0    0  0.85144003440E-03  0.23598912941E-02  0.39756833646E+01  0.39757124531E+01  0.15000000000E-01 0. -1.
</event>
<event>
 5   0  0.2306700E+09  0.9118800E+02  0.7818608E-02  0.1180000E+00
       11   -1    0    0    0    0  0.00000000000E+00  0.00000000000E+00  0.39999999673E+01  0.40000000000E+01  0.51109989000E-03 0. -1.
     -623   -1    0    0    0    0  0.00000000000E+00  0.00000000000E+00  0.12525980253E-10  0.17130000000E+03  0.17130000000E+03 0. -1.
       11    1    1    2    0    0 -0.13541759523E-02  0.13450225918E-03  0.42256162293E-01  0.42281158430E-01  0.51109989000E-03 0. -1.
     -623    1    1    2    0    0 -0.19156178744E-03  0.83300248136E-03  0.53811320484E-04  0.17130000000E+03  0.17130000000E+03 0. -1.
      622    1    1    2    0    0  0.15457377399E-02 -0.96750474134E-03  0.39576899976E+01  0.39577188433E+01  0.15000000000E-01 0. -1.
</event>
<event>
 5   0  0.2306700E+09  0.9118800E+02  0.7818608E-02  0.1180000E+00
       11   -1    0    0    0    0  0.00000000000E+00  0.00000000000E+00  0.39999999673E+01  0.40000000000E+01  0.51109989000E-03 0.  1.
     -623   -1    0    0    0    0  0.00000000000E+00  0.00000000000E+00  0.12525980253E-10  0.17130000000E+03  0.17130000000E+03 0. -1.
       11    1    1    2    0    0  0.21037381731E-02 -0.33471689248E-02  0.27033155267E+00  0.27036094179E+00  0.51109989000E-03 0.  1.
     -623    1    1    2    0    0  0.61998089284E-04  0.36406463640E-03  0.61342603117E-04  0.17130000000E+03  0.17130000000E+03 0. -1.
      622    1    1    2    0    0 -0.21657362623E-02  0.29831042884E-02  0.37296070721E+01  0.37296390578E+01  0.15000000000E-01 0.  1.
</event>
<event>
 5   0  0.2306700E+09  0.9118800E+02  0.7818608E-02  0.1180000E+00
       11   -1    0    0    0    0  0.00000000000E+00  0.00000000000E+00  0.39999999673E+01  0.40000000000E+01  0.51109989000E-03 0. -1.
     -623   -1    0    0    0    0  0.00000000000E+00  0.00000000000E+00  0.12525980253E-10  0.17130000000E+03  0.17130000000E+03 0.  1.
       11    1    1    2    0    0  0.66641919053E-03  0.49366949795E-03  0.33436350618E-01  0.33450539455E-01  0.51109989000E-03 0. -1.
     -623    1    1    2    0    0 -0.43467204575E-03 -0.29444158950E-03  0.42531064413E-04  0.17130000000E+03  0.17130000000E+03 0.  1.
      622    1    1    2    0    0 -0.23174714457E-03 -0.19922790831E-03  0.39665210877E+01  0.39665494617E+01  0.15000000000E-01 0. -1.
</event>
<event>
 5   0  0.2306700E+09  0.9118800E+02  0.7818608E-02  0.1180000E+00
       11   -1    0    0    0    0  0.00000000000E+00  0.00000000000E+00  0.39999999673E+01  0.40000000000E+01  0.51109989000E-03 0. -1.
     -623   -1    0    0    0    0  0.00000000000E+00  0.00000000000E+00  0.12525980253E-10  0.17130000000E+03  0.17130000000E+03 0.  1.
       11    1    1    2    0    0 -0.20486227358E-02  0.21472595022E-03  0.18944022593E+00  0.18945211370E+00  0.51109989000E-03 0. -1.
     -623    1    1    2    0    0 -0.20883612990E-03 -0.29205823046E-03  0.42048416279E-04  0.17130000000E+03  0.17130000000E+03 0.  1.
      622    1    1    2    0    0  0.22574588662E-02  0.77332280922E-04  0.38105177024E+01  0.38105478953E+01  0.15000000000E-01 0. -1.
</event>
<event>
 5   0  0.2306700E+09  0.9118800E+02  0.7818608E-02  0.1180000E+00
       11   -1    0    0    0    0  0.00000000000E+00  0.00000000000E+00  0.39999999673E+01  0.40000000000E+01  0.51109989000E-03 0. -1.
     -623   -1    0    0    0    0  0.00000000000E+00  0.00000000000E+00  0.12525980253E-10  0.17130000000E+03  0.17130000000E+03 0. -1.
       11    1    1    2    0    0  0.13782522884E-02 -0.11202264867E-02  0.60989649744E-01  0.61017645692E-01  0.51109989000E-03 0. -1.
     -623    1    1    2    0    0 -0.69755031018E-04  0.37414375160E-03  0.56812515270E-04  0.17130000000E+03  0.17130000000E+03 0. -1.
      622    1    1    2    0    0 -0.13084972572E-02  0.74608273456E-03  0.39389535106E+01  0.39389823594E+01  0.15000000000E-01 0. -1.
</event>
<event>
 5   0  0.2306700E+09  0.9118800E+02  0.7818608E-02  0.1180000E+00
       11   -1    0    0    0    0  0.00000000000E+00  0.00000000000E+00  0.39999999673E+01  0.40000000000E+01  0.51109989000E-03 0.  1.
     -623   -1    0    0    0    0  0.00000000000E+00  0.00000000000E+00  0.12525980253E-10  0.17130000000E+03  0.17130000000E+03 0.  1.
       11    1    1    2    0    0 -0.89582666380E-03  0.59439535325E-03  0.93169467538E-02  0.93926848828E-02  0.51109989000E-03 0.  1.
     -623    1    1    2    0    0 -0.46089169194E-03 -0.65057442541E-03  0.10412969749E-03  0.17130000000E+03  0.17130000000E+03 0.  1.
      622    1    1    2    0    0  0.13567183557E-02  0.56179072160E-04  0.39905788909E+01  0.39906073132E+01  0.15000000000E-01 0.  1.
</event>
<event>
 5   0  0.2306700E+09  0.9118800E+02  0.7818608E-02  0.1180000E+00
       11   -1    0    0    0    0  0.00000000000E+00  0.00000000000E+00  0.39999999673E+01  0.40000000000E+01  0.51109989000E-03 0. -1.
     -623   -1    0    0    0    0  0.00000000000E+00  0.00000000000E+00  0.12525980253E-10  0.17130000000E+03  0.17130000000E+03 0.  1.
       11    1    1    2    0    0 -0.11104750897E-02 -0.10827117581E-01  0.91974206217E+00  0.91980660020E+00  0.51109989000E-03 0. -1.
     -623    1    1    2    0    0  0.38766243767E-03 -0.86173855937E-04  0.12044808406E-03  0.17130000000E+03  0.17130000000E+03 0.  1.
      622    1    1    2    0    0  0.72281265171E-03  0.10913291437E-01  0.30801374604E+01  0.30801934026E+01  0.15000000000E-01 0. -1.
</event>
<event>
 5   0  0.2306700E+09  0.9118800E+02  0.7818608E-02  0.1180000E+00
       11   -1    0    0    0    0  0.00000000000E+00  0.00000000000E+00  0.39999999673E+01  0.40000000000E+01  0.51109989000E-03 0.  1.
     -623   -1    0    0    0    0  0.00000000000E+00  0.00000000000E+00  0.12525980253E-10  0.17130000000E+03  0.17130000000E+03 0.  1.
       11    1    1    2    0    0  0.87512059186E-04 -0.10747843785E-03  0.57309301325E+00  0.57309325791E+00  0.51109989000E-03 0.  1.
     -623    1    1    2    0    0  0.12353101974E-02  0.27145059688E-03  0.33304530151E-04  0.17130000000E+03  0.17130000000E+03 0.  1.
      622    1    1    2    0    0 -0.13228222566E-02 -0.16397215903E-03  0.34268736496E+01  0.34269067374E+01  0.15000000000E-01 0.  1.
</event>
<event>
 5   0  0.2306700E+09  0.9118800E+02  0.7818608E-02  0.1180000E+00
       11   -1    0    0    0    0  0.00000000000E+00  0.00000000000E+00  0.39999999673E+01  0.40000000000E+01  0.51109989000E-03 0. -1.
     -623   -1    0    0    0    0  0.00000000000E+00  0.00000000000E+00  0.12525980253E-10  0.17130000000E+03  0.17130000000E+03 0. -1.
       11    1    1    2    0    0  0.14000943162E-01 -0.46914145917E-02  0.39526108099E+00  0.39553712739E+00  0.51109989000E-03 0. -1.
     -623    1    1    2    0    0 -0.13571925846E-01  0.17958878060E-02  0.30896110425E-03  0.17130000055E+03  0.17130000000E+03 0. -1.
      622    1    1    2    0    0 -0.42901731547E-03  0.28955267856E-02  0.36044299253E+01  0.36044623253E+01  0.15000000000E-01 0. -1.
</event>
<event>
 5   0  0.2306700E+09  0.9118800E+02  0.7818608E-02  0.1180000E+00
       11   -1    0    0    0    0  0.00000000000E+00  0.00000000000E+00  0.39999999673E+01  0.40000000000E+01  0.51109989000E-03 0. -1.
     -623   -1    0    0    0    0  0.00000000000E+00  0.00000000000E+00  0.12525980253E-10  0.17130000000E+03  0.17130000000E+03 0.  1.
       11    1    1    2    0    0 -0.48037578840E-03 -0.24508088546E-03  0.26724204666E-01  0.26734531297E-01  0.51109989000E-03 0. -1.
     -623    1    1    2    0    0 -0.25495480118E-04  0.13518528929E-03  0.38642116748E-04  0.17130000000E+03  0.17130000000E+03 0.  1.
      622    1    1    2    0    0  0.50587126853E-03  0.10989559611E-03  0.39732371223E+01  0.39732654704E+01  0.15000000000E-01 0. -1.
</event>
<event>
 5   0  0.2306700E+09  0.9118800E+02  0.7818608E-02  0.1180000E+00
       11   -1    0    0    0    0  0.00000000000E+00  0.00000000000E+00  0.39999999673E+01  0.40000000000E+01  0.51109989000E-03 0. -1.
     -623   -1    0    0    0    0  0.00000000000E+00  0.00000000000E+00  0.12525980253E-10  0.17130000000E+03  0.17130000000E+03 0. -1.
       11    1    1    2    0    0  0.48338881204E-03 -0.45063252784E-03  0.55088407000E+00  0.55088470349E+00  0.51109989000E-03 0. -1.
     -623    1    1    2    0    0  0.14727443423E-04  0.98534360888E-04  0.33272034908E-04  0.17130000000E+03  0.17130000000E+03 0. -1.
      622    1    1    2    0    0 -0.49811625552E-03  0.35209816654E-03  0.34490826419E+01  0.34491153131E+01  0.15000000000E-01 0. -1.
</event>
<event>
 5   0  0.2306700E+09  0.9118800E+02  0.7818608E-02  0.1180000E+00
       11   -1    0    0    0    0  0.00000000000E+00  0.00000000000E+00  0.39999999673E+01  0.40000000000E+01  0.51109989000E-03 0. -1.
     -623   -1    0    0    0    0  0.00000000000E+00  0.00000000000E+00  0.12525980253E-10  0.17130000000E+03  0.17130000000E+03 0. -1.
       11    1    1    2    0    0 -0.27942157439E-02 -0.32271249813E-03  0.12684119340E+00  0.12687340679E+00  0.51109989000E-03 0. -1.
     -623    1    1    2    0    0  0.46611265431E-04 -0.42458515650E-04  0.62218986089E-04  0.17130000000E+03  0.17130000000E+03 0. -1.
      622    1    1    2    0    0  0.27476044785E-02  0.36517101371E-03  0.38730965481E+01  0.38731265863E+01  0.15000000000E-01 0. -1.
</event>
<event>
 5   0  0.2306700E+09  0.9118800E+02  0.7818608E-02  0.1180000E+00
       11   -1    0    0    0    0  0.00000000000E+00  0.00000000000E+00  0.39999999673E+01  0.40000000000E+01  0.51109989000E-03 0. -1.
     -623   -1    0    0    0    0  0.00000000000E+00  0.00000000000E+00  0.12525980253E-10  0.17130000000E+03  0.17130000000E+03 0. -1.
       11    1    1    2    0    0  0.36359651395E-04  0.71570888574E-03  0.83428752306E-02  0.83891806182E-02  0.51109989000E-03 0. -1.
     -623    1    1    2    0    0 -0.94670661337E-03 -0.14790024144E-02  0.74642765037E-04  0.17130000001E+03  0.17130000000E+03 0. -1.
      622    1    1    2    0    0  0.91034696324E-03  0.76329353066E-03  0.39915824547E+01  0.39916108157E+01  0.15000000000E-01 0. -1.
</event>
<event>
 5   0  0.2306700E+09  0.9118800E+02  0.7818608E-02  0.1180000E+00
       11   -1    0    0    0    0  0.00000000000E+00  0.00000000000E+00  0.39999999673E+01  0.40000000000E+01  0.51109989000E-03 0. -1.
     -623   -1    0    0    0    0  0.00000000000E+00  0.00000000000E+00  0.12525980253E-10  0.17130000000E+03  0.17130000000E+03 0.  1.
       11    1    1    2    0    0 -0.11320100861E-03 -0.16057786782E-02  0.58797343068E-01  0.58821595648E-01  0.51109989000E-03 0. -1.
     -623    1    1    2    0    0  0.11904944793E-02  0.18514057026E-02  0.52933846005E-04  0.17130000001E+03  0.17130000000E+03 0.  1.
      622    1    1    2    0    0 -0.10772934720E-02 -0.24562702643E-03  0.39411496949E+01  0.39411783947E+01  0.15000000000E-01 0. -1.
</event>
<event>
 5   0  0.2306700E+09  0.9118800E+02  0.7818608E-02  0.1180000E+00
       11   -1    0    0    0    0  0.00000000000E+00  0.00000000000E+00  0.39999999673E+01  0.40000000000E+01  0.51109989000E-03 0. -1.
     -623   -1    0    0    0    0  0.00000000000E+00  0.00000000000E+00  0.12525980253E-10  0.17130000000E+03  0.17130000000E+03 0.  1.
       11    1    1    2    0    0  0.51628521477E-03  0.60798981242E-03  0.16455442529E+00  0.16455715210E+00  0.51109989000E-03 0. -1.
     -623    1    1    2    0    0  0.75689173156E-03  0.46453487135E-03  0.32389549485E-04  0.17130000000E+03  0.17130000000E+03 0.  1.
      622    1    1    2    0    0 -0.12731769452E-02 -0.10725246831E-02  0.38354131463E+01  0.38354428394E+01  0.15000000000E-01 0. -1.
</event>
<event>
 5   0  0.2306700E+09  0.9118800E+02  0.7818608E-02  0.1180000E+00
       11   -1    0    0    0    0  0.00000000000E+00  0.00000000000E+00  0.39999999673E+01  0.40000000000E+01  0.51109989000E-03 0.  1.
     -623   -1    0    0    0    0  0.00000000000E+00  0.00000000000E+00  0.12525980253E-10  0.17130000000E+03  0.17130000000E+03 0.  1.
       11    1    1    2    0    0  0.15945828516E-02  0.61124761797E-03  0.34884444940E-01  0.34929959060E-01  0.51109989000E-03 0.  1.
     -623    1    1    2    0    0 -0.42325165435E-02  0.11841126961E-02  0.75194718867E-04  0.17130000006E+03  0.17130000000E+03 0.  1.
      622    1    1    2    0    0  0.26379336878E-02 -0.17953603129E-02  0.39650403238E+01  0.39650699807E+01  0.15000000000E-01 0.  1.
</event>
<event>
 5   0  0.2306700E+09  0.9118800E+02  0.7818608E-02  0.1180000E+00
       11   -1    0    0    0    0  0.00000000000E+00  0.00000000000E+00  0.39999999673E+01  0.40000000000E+01  0.51109989000E-03 0.  1.
     -623   -1    0    0    0    0  0.00000000000E+00  0.00000000000E+00  0.12525980253E-10  0.17130000000E+03  0.17130000000E+03 0. -1.
       11    1    1    2    0    0  0.13212790258E-02 -0.14582125502E-03  0.56200416983E-01  0.56218459017E-01  0.51109989000E-03 0.  1.
     -623    1    1    2    0    0  0.17269104311E-03 -0.13949094036E-03  0.46828861077E-04  0.17130000000E+03  0.17130000000E+03 0. -1.
      622    1    1    2    0    0 -0.14939700692E-02  0.28531219560E-03  0.39437527278E+01  0.39437815471E+01  0.15000000000E-01 0.  1.
</event>
<event>
 5   0  0.2306700E+09  0.9118800E+02  0.7818608E-02  0.1180000E+00
       11   -1    0    0    0    0  0.00000000000E+00  0.00000000000E+00  0.39999999673E+01  0.40000000000E+01  0.51109989000E-03 0. -1.
     -623   -1    0    0    0    0  0.00000000000E+00  0.00000000000E+00  0.12525980253E-10  0.17130000000E+03  0.17130000000E+03 0. -1.
       11    1    1    2    0    0  0.68480656236E-03 -0.78237522176E-04  0.13714130211E-01  0.13740948718E-01  0.51109989000E-03 0. -1.
     -623    1    1    2    0    0 -0.81152632008E-04 -0.15605597627E-03  0.55060607853E-04  0.17130000000E+03  0.17130000000E+03 0. -1.
      622    1    1    2    0    0 -0.60365393037E-03  0.23429349841E-03  0.39862307756E+01  0.39862590503E+01  0.15000000000E-01 0. -1.
</event>
<event>
 5   0  0.2306700E+09  0.9118800E+02  0.7818608E-02  0.1180000E+00
       11   -1    0    0    0    0  0.00000000000E+00  0.00000000000E+00  0.39999999673E+01  0.40000000000E+01  0.51109989000E-03 0.  1.
     -623   -1    0    0    0    0  0.00000000000E+00  0.00000000000E+00  0.12525980253E-10  0.17130000000E+03  0.17130000000E+03 0. -1.
       11    1    1    2    0    0  0.29401441555E-02 -0.32305202224E-02  0.92727699892E+00  0.92728742828E+00  0.51109989000E-03 0.  1.
     -623    1    1    2    0    0 -0.29645271697E-02 -0.17540867462E-02  0.51087391260E-04  0.17130000003E+03  0.17130000000E+03 0. -1.
      622    1    1    2    0    0  0.24383020380E-04  0.49846069722E-02  0.30726718894E+01  0.30727125454E+01  0.15000000000E-01 0.  1.
</event>
<event>
 5   0  0.2306700E+09  0.9118800E+02  0.7818608E-02  0.1180000E+00
       11   -1    0    0    0    0  0.00000000000E+00  0.00000000000E+00  0.39999999673E+01  0.40000000000E+01  0.51109989000E-03 0.  1.
     -623   -1    0    0    0    0  0.00000000000E+00  0.00000000000E+00  0.12525980253E-10  0.17130000000E+03  0.17130000000E+03 0. -1.
       11    1    1    2    0    0 -0.12394535009E-02  0.27695362521E-02  0.73818206643E-01  0.73882307971E-01  0.51109989000E-03 0.  1.
     -623    1    1    2    0    0 -0.19599765323E-03 -0.61857998761E-04  0.93919308787E-04  0.17130000000E+03  0.17130000000E+03 0. -1.
      622    1    1    2    0    0  0.14354511543E-02 -0.27076782533E-02  0.39260878460E+01  0.39261176964E+01  0.15000000000E-01 0.  1.
</event>
<event>
 5   0  0.2306700E+09  0.9118800E+02  0.7818608E-02  0.1180000E+00
       11   -1    0    0    0    0  0.00000000000E+00  0.00000000000E+00  0.39999999673E+01  0.40000000000E+01  0.51109989000E-03 0. -1.
     -623   -1    0    0    0    0  0.00000000000E+00  0.00000000000E+00  0.12525980253E-10  0.17130000000E+03  0.17130000000E+03 0. -1.
       11    1    1    2    0    0 -0.61418299366E-03  0.22238276740E-02  0.22036974699E+00  0.22038241590E+00  0.51109989000E-03 0. -1.
     -623    1    1    2    0    0  0.38075422687E-03  0.12356392565E-05  0.43063894188E-04  0.17130000000E+03  0.17130000000E+03 0. -1.
      622    1    1    2    0    0  0.23342876680E-03 -0.22250633132E-02  0.37795871565E+01  0.37796175837E+01  0.15000000000E-01 0. -1.
</event>
<event>
 5   0  0.2306700E+09  0.9118800E+02  0.7818608E-02  0.1180000E+00
       11   -1    0    0    0    0  0.00000000000E+00  0.00000000000E+00  0.39999999673E+01  0.40000000000E+01  0.51109989000E-03 0.  1.
     -623   -1    0    0    0    0  0.00000000000E+00  0.00000000000E+00  0.12525980253E-10  0.17130000000E+03  0.17130000000E+03 0.  1.
       11    1    1    2    0    0  0.13427767277E-01  0.14696464498E-01  0.90319027090E+00  0.90340977284E+00  0.51109989000E-03 0.  1.
     -623    1    1    2    0    0 -0.20176182257E-01 -0.27804399483E-01  0.29434198736E-03  0.17130000344E+03  0.17130000000E+03 0.  1.
      622    1    1    2    0    0  0.67484149797E-02  0.13107934984E-01  0.30965153545E+01  0.30965867822E+01  0.15000000000E-01 0.  1.
</event>
<event>
 5   0  0.2306700E+09  0.9118800E+02  0.7818608E-02  0.1180000E+00
       11   -1    0    0    0    0  0.00000000000E+00  0.00000000000E+00  0.39999999673E+01  0.40000000000E+01  0.51109989000E-03 0.  1.
     -623   -1    0    0    0    0  0.00000000000E+00  0.00000000000E+00  0.12525980253E-10  0.17130000000E+03  0.17130000000E+03 0.  1.
       11    1    1    2    0    0  0.92452761728E-03 -0.33546772588E-02  0.17214285922E+00  0.17217878445E+00  0.51109989000E-03 0.  1.
     -623    1    1    2    0    0  0.21786229179E-02  0.94552365284E-02  0.71676857449E-04  0.17130000027E+03  0.17130000000E+03 0.  1.
      622    1    1    2    0    0 -0.31031505346E-02 -0.61005592672E-02  0.38277854303E+01  0.38278209397E+01  0.15000000000E-01 0.  1.
</event>
<event>
 5   0  0.2306700E+09  0.9118800E+02  0.7818608E-02  0.1180000E+00
       11   -1    0    0    0    0  0.00000000000E+00  0.00000000000E+00  0.39999999673E+01  0.40000000000E+01  0.51109989000E-03 0.  1.
     -623   -1    0    0    0    0  0.00000000000E+00  0.00000000000E+00  0.12525980253E-10  0.17130000000E+03  0.17130000000E+03 0. -1.
       11    1    1    2    0    0  0.21193943113E-02  0.58060405678E-02  0.33618743995E-01  0.34186007521E-01  0.51109989000E-03 0.  1.
     -623    1    1    2    0    0  0.25813335059E-02 -0.22981188579E-02  0.59997174254E-03  0.17130000004E+03  0.17130000000E+03 0. -1.
      622    1    1    2    0    0 -0.47007278174E-02 -0.35079217097E-02  0.39657812519E+01  0.39658139569E+01  0.15000000000E-01 0.  1.
</event>
<event>
 5   0  0.2306700E+09  0.9118800E+02  0.7818608E-02  0.1180000E+00
       11   -1    0    0    0    0  0.00000000000E+00  0.00000000000E+00  0.39999999673E+01  0.40000000000E+01  0.51109989000E-03 0. -1.
     -623   -1    0    0    0    0  0.00000000000E+00  0.00000000000E+00  0.12525980253E-10  0.17130000000E+03  0.17130000000E+03 0. -1.
       11    1    1    2    0    0 -0.14152062008E-01  0.71234429488E-03  0.98186174474E+00  0.98196412119E+00  0.51109989000E-03 0. -1.
     -623    1    1    2    0    0  0.22692609023E-01 -0.25521462174E-01  0.25708131923E-03  0.17130000340E+03  0.17130000000E+03 0. -1.
      622    1    1    2    0    0 -0.85405470146E-02  0.24809117879E-01  0.30178811413E+01  0.30180324744E+01  0.15000000000E-01 0. -1.
</event>
<event>
 5   0  0.2306700E+09  0.9118800E+02  0.7818608E-02  0.1180000E+00
       11   -1    0    0    0    0  0.00000000000E+00  0.00000000000E+00  0.39999999673E+01  0.40000000000E+01  0.51109989000E-03 0. -1.
     -623   -1    0    0    0    0  0.00000000000E+00  0.00000000000E+00  0.12525980253E-10  0.17130000000E+03  0.17130000000E+03 0. -1.
       11    1    1    2    0    0  0.42006525217E-03 -0.92994185350E-03  0.19050463519E-01  0.19084617570E-01  0.51109989000E-03 0. -1.
     -623    1    1    2    0    0  0.12225744199E-03 -0.17980612440E-04  0.62531198334E-04  0.17130000000E+03  0.17130000000E+03 0. -1.
      622    1    1    2    0    0 -0.54232269416E-03  0.94792246594E-03  0.39808869726E+01  0.39809153824E+01  0.15000000000E-01 0. -1.
</event>
<event>
 5   0  0.2306700E+09  0.9118800E+02  0.7818608E-02  0.1180000E+00
       11   -1    0    0    0    0  0.00000000000E+00  0.00000000000E+00  0.39999999673E+01  0.40000000000E+01  0.51109989000E-03 0. -1.
     -623   -1    0    0    0    0  0.00000000000E+00  0.00000000000E+00  0.12525980253E-10  0.17130000000E+03  0.17130000000E+03 0.  1.
       11    1    1    2    0    0  0.62059172239E-03 -0.85596031994E-03  0.16578310999E-01  0.16619850146E-01  0.51109989000E-03 0. -1.
     -623    1    1    2    0    0 -0.98804486086E-03  0.38903519056E-03  0.69796573659E-04  0.17130000000E+03  0.17130000000E+03 0.  1.
      622    1    1    2    0    0  0.36745313847E-03  0.46692512938E-03  0.39833518598E+01  0.39833801465E+01  0.15000000000E-01 0. -1.
</event>
<event>
 5   0  0.2306700E+09  0.9118800E+02  0.7818608E-02  0.1180000E+00
       11   -1    0    0    0    0  0.00000000000E+00  0.00000000000E+00  0.39999999673E+01  0.40000000000E+01  0.51109989000E-03 0.  1.
     -623   -1    0    0    0    0  0.00000000000E+00  0.00000000000E+00  0.12525980253E-10  0.17130000000E+03  0.17130000000E+03 0.  1.
       11    1    1    2    0    0 -0.30487738232E-02 -0.31416747217E-03  0.75151617821E+00  0.75152260182E+00  0.51109989000E-03 0.  1.
     -623    1    1    2    0    0 -0.56472412424E-03 -0.26710650697E-03  0.43085710200E-04  0.17130000000E+03  0.17130000000E+03 0.  1.
      622    1    1    2    0    0  0.36134979474E-02  0.58127397914E-03  0.32484407034E+01  0.32484773970E+01  0.15000000000E-01 0.  1.
</event>
<event>
 5   0  0.2306700E+09  0.9118800E+02  0.7818608E-02  0.1180000E+00
       11   -1    0    0    0    0  0.00000000000E+00  0.00000000000E+00  0.39999999673E+01  0.40000000000E+01  0.51109989000E-03 0.  1.
     -623   -1    0    0    0    0  0.00000000000E+00  0.00000000000E+00  0.12525980253E-10  0.17130000000E+03  0.17130000000E+03 0.  1.
       11    1    1    2    0    0 -0.82506456279E-03 -0.94193718993E-04  0.14721974332E-01  0.14754231776E-01  0.51109989000E-03 0.  1.
     -623    1    1    2    0    0 -0.11768415984E-03  0.82765476157E-04  0.60565625635E-04  0.17130000000E+03  0.17130000000E+03 0.  1.
      622    1    1    2    0    0  0.94274872282E-03  0.11428242701E-04  0.39852174339E+01  0.39852457747E+01  0.15000000000E-01 0.  1.
</event>
<event>
 5   0  0.2306700E+09  0.9118800E+02  0.7818608E-02  0.1180000E+00
       11   -1    0    0    0    0  0.00000000000E+00  0.00000000000E+00  0.39999999673E+01  0.40000000000E+01  0.51109989000E-03 0. -1.
     -623   -1    0    0    0    0  0.00000000000E+00  0.00000000000E+00  0.12525980253E-10  0.17130000000E+03  0.17130000000E+03 0. -1.
       11    1    1    2    0    0 -0.18207113002E-04 -0.85690173608E-03  0.22005592960E-01  0.22028208135E-01  0.51109989000E-03 0. -1.
     -623    1    1    2    0    0  0.65919195859E-03  0.80351528485E-04  0.50992113106E-04  0.17130000000E+03  0.17130000000E+03 0. -1.
      622    1    1    2    0    0 -0.64098484558E-03  0.77655020760E-03  0.39779433823E+01  0.39779717906E+01  0.15000000000E-01 0. -1.
</event>
<event>
 5   0  0.2306700E+09  0.9118800E+02  0.7818608E-02  0.1180000E+00
       11   -1    0    0    0    0  0.00000000000E+00  0.00000000000E+00  0.39999999673E+01  0.40000000000E+01  0.51109989000E-03 0.  1.
     -623   -1    0    0    0    0  0.00000000000E+00  0.00000000000E+00  0.12525980253E-10  0.17130000000E+03  0.17130000000E+03 0. -1.
       11    1    1    2    0    0 -0.89085220716E-04 -0.90565850693E-03  0.15684529795E-01  0.15719219176E-01  0.51109989000E-03 0.  1.
     -623    1    1    2    0    0  0.12563955557E-03  0.15925719891E-03  0.62963016449E-04  0.17130000000E+03  0.17130000000E+03 0. -1.
      622    1    1    2    0    0 -0.36554334905E-04  0.74640130795E-03  0.39842524762E+01  0.39842807824E+01  0.15000000000E-01 0.  1.
</event>
<event>
 5   0  0.2306700E+09  0.9118800E+02  0.7818608E-02  0.1180000E+00
       11   -1    0    0    0    0  0.00000000000E+00  0.00000000000E+00  0.39999999673E+01  0.40000000000E+01  0.51109989000E-03 0. -1.
     -623   -1    0    0    0    0  0.00000000000E+00  0.00000000000E+00  0.12525980253E-10  0.17130000000E+03  0.17130000000E+03 0.  1.
       11    1    1    2    0    0  0.13042659638E-02  0.73397293451E-03  0.80157618840E-01  0.80173218128E-01  0.51109989000E-03 0. -1.
     -623    1    1    2    0    0 -0.11082603523E-02  0.89890739410E-03  0.44617957188E-04  0.17130000001E+03  0.17130000000E+03 0.  1.
      622    1    1    2    0    0 -0.19600561149E-03 -0.16328803286E-02  0.39197977306E+01  0.39198267759E+01  0.15000000000E-01 0. -1.
</event>
<event>
 5   0  0.2306700E+09  0.9118800E+02  0.7818608E-02  0.1180000E+00
       11   -1    0    0    0    0  0.00000000000E+00  0.00000000000E+00  0.39999999673E+01  0.40000000000E+01  0.51109989000E-03 0.  1.
     -623   -1    0    0    0    0  0.00000000000E+00  0.00000000000E+00  0.12525980253E-10  0.17130000000E+03  0.17130000000E+03 0. -1.
       11    1    1    2    0    0 -0.41317724398E-03  0.15346776548E-02  0.60315082561E+00  0.60315313612E+00  0.51109989000E-03 0.  1.
     -623    1    1    2    0    0 -0.40098827493E-04  0.74079179948E-03  0.36190981207E-04  0.17130000000E+03  0.17130000000E+03 0. -1.
      622    1    1    2    0    0  0.45327607148E-03 -0.22754694544E-02  0.33968129512E+01  0.33968468627E+01  0.15000000000E-01 0.  0.
</event>
<event>
 5   0  0.2306700E+09  0.9118800E+02  0.7818608E-02  0.1180000E+00
       11   -1    0    0    0    0  0.00000000000E+00  0.00000000000E+00  0.39999999673E+01  0.40000000000E+01  0.51109989000E-03 0. -1.
     -623   -1    0    0    0    0  0.00000000000E+00  0.00000000000E+00  0.12525980253E-10  0.17130000000E+03  0.17130000000E+03 0. -1.
       11    1    1    2    0    0  0.34281875582E-03 -0.51656229369E-03  0.40652897319E-02  0.41439311052E-02  0.51109989000E-03 0. -1.
     -623    1    1    2    0    0 -0.66997373496E-03  0.78739427833E-03  0.10678872363E-03  0.17130000000E+03  0.17130000000E+03 0. -1.
      622    1    1    2    0    0  0.32715498004E-03 -0.27083198571E-03  0.39958278943E+01  0.39958560712E+01  0.15000000000E-01 0. -1.
</event>
<event>
 5   0  0.2306700E+09  0.9118800E+02  0.7818608E-02  0.1180000E+00
       11   -1    0    0    0    0  0.00000000000E+00  0.00000000000E+00  0.39999999673E+01  0.40000000000E+01  0.51109989000E-03 0.  1.
     -623   -1    0    0    0    0  0.00000000000E+00  0.00000000000E+00  0.12525980253E-10  0.17130000000E+03  0.17130000000E+03 0. -1.
       11    1    1    2    0    0 -0.28242966717E-03 -0.21307118263E-03  0.64751635171E-01  0.64754618725E-01  0.51109989000E-03 0.  1.
     -623    1    1    2    0    0  0.29770197340E-03  0.55333044699E-04  0.31542277437E-04  0.17130000000E+03  0.17130000000E+03 0. -1.
      622    1    1    2    0    0 -0.15272306871E-04  0.15773813781E-03  0.39352167985E+01  0.39352453896E+01  0.15000000000E-01 0.  1.
</event>
<event>
 5   0  0.2306700E+09  0.9118800E+02  0.7818608E-02  0.1180000E+00
       11   -1    0    0    0    0  0.00000000000E+00  0.00000000000E+00  0.39999999673E+01  0.40000000000E+01  0.51109989000E-03 0.  1.
     -623   -1    0    0    0    0  0.00000000000E+00  0.00000000000E+00  0.12525980253E-10  0.17130000000E+03  0.17130000000E+03 0. -1.
       11    1    1    2    0    0  0.12208494932E-03  0.27959553894E-02  0.64230534237E-01  0.64293506847E-01  0.51109989000E-03 0.  1.
     -623    1    1    2    0    0  0.15111788414E-04  0.21364764527E-04  0.92535318076E-04  0.17130000000E+03  0.17130000000E+03 0. -1.
      622    1    1    2    0    0 -0.13719673773E-03 -0.28173201539E-02  0.39356768959E+01  0.39357064912E+01  0.15000000000E-01 0.  1.
</event>
<event>
 5   0  0.2306700E+09  0.9118800E+02  0.7818608E-02  0.1180000E+00
       11   -1    0    0    0    0  0.00000000000E+00  0.00000000000E+00  0.39999999673E+01  0.40000000000E+01  0.51109989000E-03 0.  1.
     -623   -1    0    0    0    0  0.00000000000E+00  0.00000000000E+00  0.12525980253E-10  0.17130000000E+03  0.17130000000E+03 0. -1.
       11    1    1    2    0    0  0.43040489372E-03 -0.74595161144E-03  0.94102914819E-01  0.94108243486E-01  0.51109989000E-03 0.  1.
     -623    1    1    2    0    0  0.16903519363E-03  0.52303343885E-04  0.34206460704E-04  0.17130000000E+03  0.17130000000E+03 0. -1.
      622    1    1    2    0    0 -0.59944008735E-03  0.69364826756E-03  0.39058628461E+01  0.39058917564E+01  0.15000000000E-01 0.  1.
</event>
<event>
 5   0  0.2306700E+09  0.9118800E+02  0.7818608E-02  0.1180000E+00
       11   -1    0    0    0    0  0.00000000000E+00  0.00000000000E+00  0.39999999673E+01  0.40000000000E+01  0.51109989000E-03 0.  1.
     -623   -1    0    0    0    0  0.00000000000E+00  0.00000000000E+00  0.12525980253E-10  0.17130000000E+03  0.17130000000E+03 0. -1.
       11    1    1    2    0    0  0.14798070258E-02 -0.17883962236E-03  0.34632118707E-01  0.34667948875E-01  0.51109989000E-03 0.  1.
     -623    1    1    2    0    0 -0.86130561980E-03  0.10572070998E-02  0.64319480271E-04  0.17130000001E+03  0.17130000000E+03 0. -1.
      622    1    1    2    0    0 -0.61850140604E-03 -0.87836747739E-03  0.39653035292E+01  0.39653320457E+01  0.15000000000E-01 0.  1.
</event>
<event>
 5   0  0.2306700E+09  0.9118800E+02  0.7818608E-02  0.1180000E+00
       11   -1    0    0    0    0  0.00000000000E+00  0.00000000000E+00  0.39999999673E+01  0.40000000000E+01  0.51109989000E-03 0. -1.
     -623   -1    0    0    0    0  0.00000000000E+00  0.00000000000E+00  0.12525980253E-10  0.17130000000E+03  0.17130000000E+03 0.  1.
       11    1    1    2    0    0  0.37454551086E-02 -0.48023488048E-02  0.72728464545E+00  0.72731032422E+00  0.51109989000E-03 0. -1.
     -623    1    1    2    0    0 -0.41603386215E-02 -0.35982702781E-02  0.70918176823E-04  0.17130000009E+03  0.17130000000E+03 0.  1.
      622    1    1    2    0    0  0.41488351833E-03  0.84006190876E-02  0.32726444090E+01  0.32726895927E+01  0.15000000000E-01 0. -1.
</event>
<event>
 5   0  0.2306700E+09  0.9118800E+02  0.7818608E-02  0.1180000E+00
       11   -1    0    0    0    0  0.00000000000E+00  0.00000000000E+00  0.39999999673E+01  0.40000000000E+01  0.51109989000E-03 0.  1.
     -623   -1    0    0    0    0  0.00000000000E+00  0.00000000000E+00  0.12525980253E-10  0.17130000000E+03  0.17130000000E+03 0.  1.
       11    1    1    2    0    0 -0.21598029494E-02 -0.99030945629E-02  0.37868589763E+00  0.37882186621E+00  0.51109989000E-03 0.  1.
     -623    1    1    2    0    0  0.50327664692E-02  0.21478786120E-03  0.18117761699E-03  0.17130000007E+03  0.17130000000E+03 0.  1.
      622    1    1    2    0    0 -0.28729635234E-02  0.96883067015E-02  0.36211328949E+01  0.36211780624E+01  0.15000000000E-01 0.  1.
</event>
<event>
 5   0  0.2306700E+09  0.9118800E+02  0.7818608E-02  0.1180000E+00
       11   -1    0    0    0    0  0.00000000000E+00  0.00000000000E+00  0.39999999673E+01  0.40000000000E+01  0.51109989000E-03 0.  1.
     -623   -1    0    0    0    0  0.00000000000E+00  0.00000000000E+00  0.12525980253E-10  0.17130000000E+03  0.17130000000E+03 0. -1.
       11    1    1    2    0    0  0.27019744043E-02 -0.30589146819E-03  0.22271758572E+00  0.22273477153E+00  0.51109989000E-03 0.  1.
     -623    1    1    2    0    0 -0.38410606288E-02 -0.39801765549E-03  0.47217614211E-04  0.17130000004E+03  0.17130000000E+03 0. -1.
      622    1    1    2    0    0  0.11390862225E-02  0.70390912348E-03  0.37772351620E+01  0.37772651829E+01  0.15000000000E-01 0.  1.
</event>
<event>
 5   0  0.2306700E+09  0.9118800E+02  0.7818608E-02  0.1180000E+00
       11   -1    0    0    0    0  0.00000000000E+00  0.00000000000E+00  0.39999999673E+01  0.40000000000E+01  0.51109989000E-03 0. -1.
     -623   -1    0    0    0    0  0.00000000000E+00  0.00000000000E+00  0.12525980253E-10  0.17130000000E+03  0.17130000000E+03 0.  1.
       11    1    1    2    0    0  0.25114830370E-02  0.37619811625E-02  0.19402968208E+00  0.19408307190E+00  0.51109989000E-03 0. -1.
     -623    1    1    2    0    0 -0.33775317565E-03 -0.10691301649E-03  0.85292800751E-04  0.17130000000E+03  0.17130000000E+03 0.  1.
      622    1    1    2    0    0 -0.21737298612E-02 -0.36550681459E-02  0.38058849940E+01  0.38059169293E+01  0.15000000000E-01 0.  0.
</event>
<event>
 5   0  0.2306700E+09  0.9118800E+02  0.7818608E-02  0.1180000E+00
       11   -1    0    0    0    0  0.00000000000E+00  0.00000000000E+00  0.39999999673E+01  0.40000000000E+01  0.51109989000E-03 0.  1.
     -623   -1    0    0    0    0  0.00000000000E+00  0.00000000000E+00  0.12525980253E-10  0.17130000000E+03  0.17130000000E+03 0. -1.
       11    1    1    2    0    0  0.63317789455E-02 -0.35276686273E-02  0.16850581109E+00  0.16866240087E+00  0.51109989000E-03 0.  1.
     -623    1    1    2    0    0  0.40303769891E-03  0.14945698834E-02  0.19238625801E-03  0.17130000001E+03  0.17130000000E+03 0. -1.
      622    1    1    2    0    0 -0.67348166443E-02  0.20330987441E-02  0.38313017692E+01  0.38313375913E+01  0.15000000000E-01 0.  1.
</event>
<event>
 5   0  0.2306700E+09  0.9118800E+02  0.7818608E-02  0.1180000E+00
       11   -1    0    0    0    0  0.00000000000E+00  0.00000000000E+00  0.39999999673E+01  0.40000000000E+01  0.51109989000E-03 0.  1.
     -623   -1    0    0    0    0  0.00000000000E+00  0.00000000000E+00  0.12525980253E-10  0.17130000000E+03  0.17130000000E+03 0.  1.
       11    1    1    2    0    0  0.40802215188E-03  0.17079327299E-05  0.76593942248E-01  0.76596734230E-01  0.51109989000E-03 0.  1.
     -623    1    1    2    0    0  0.67988445650E-04  0.14945927945E-04  0.31462461009E-04  0.17130000000E+03  0.17130000000E+03 0.  1.
      622    1    1    2    0    0 -0.47601059753E-03 -0.16653860675E-04  0.39233745627E+01  0.39234032658E+01  0.15000000000E-01 0.  1.
</event>
<event>
 5   0  0.2306700E+09  0.9118800E+02  0.7818608E-02  0.1180000E+00
       11   -1    0    0    0    0  0.00000000000E+00  0.00000000000E+00  0.39999999673E+01  0.40000000000E+01  0.51109989000E-03 0.  1.
     -623   -1    0    0    0    0  0.00000000000E+00  0.00000000000E+00  0.12525980253E-10  0.17130000000E+03  0.17130000000E+03 0. -1.
       11    1    1    2    0    0 -0.21504419096E-02  0.74983934749E-02  0.10604474274E+01  0.10604762410E+01  0.51109989000E-03 0.  1.
     -623    1    1    2    0    0  0.20563282408E-03  0.49715561403E-03  0.78571145393E-04  0.17130000000E+03  0.17130000000E+03 0. -1.
      622    1    1    2    0    0  0.19448090854E-02 -0.79955490891E-02  0.29394739706E+01  0.29395237599E+01  0.15000000000E-01 0.  1.
</event>
<event>
 5   0  0.2306700E+09  0.9118800E+02  0.7818608E-02  0.1180000E+00
       11   -1    0    0    0    0  0.00000000000E+00  0.00000000000E+00  0.39999999673E+01  0.40000000000E+01  0.51109989000E-03 0.  1.
     -623   -1    0    0    0    0  0.00000000000E+00  0.00000000000E+00  0.12525980253E-10  0.17130000000E+03  0.17130000000E+03 0.  1.
       11    1    1    2    0    0  0.36274608093E-02  0.30213636377E-03  0.24426210160E+00  0.24428975676E+00  0.51109989000E-03 0.  1.
     -623    1    1    2    0    0 -0.17499072218E-02  0.58318886241E-03  0.58160636258E-04  0.17130000001E+03  0.17130000000E+03 0.  1.
      622    1    1    2    0    0 -0.18775535856E-02 -0.88532522680E-03  0.37556797094E+01  0.37557102376E+01  0.15000000000E-01 0.  1.
</event>
<event>
 5   0  0.2306700E+09  0.9118800E+02  0.7818608E-02  0.1180000E+00
       11   -1    0    0    0    0  0.00000000000E+00  0.00000000000E+00  0.39999999673E+01  0.40000000000E+01  0.51109989000E-03 0.  1.
     -623   -1    0    0    0    0  0.00000000000E+00  0.00000000000E+00  0.12525980253E-10  0.17130000000E+03  0.17130000000E+03 0. -1.
       11    1    1    2    0    0  0.29201042104E-02  0.43921084489E-02  0.30256621336E-01  0.30717128478E-01  0.51109989000E-03 0.  1.
     -623    1    1    2    0    0 -0.43681878670E-03 -0.10946461290E-02  0.49096850736E-03  0.17130000000E+03  0.17130000000E+03 0. -1.
      622    1    1    2    0    0 -0.24832854237E-02 -0.32974623199E-02  0.39692523775E+01  0.39692828668E+01  0.15000000000E-01 0.  1.
</event>
<event>
 5   0  0.2306700E+09  0.9118800E+02  0.7818608E-02  0.1180000E+00
       11   -1    0    0    0    0  0.00000000000E+00  0.00000000000E+00  0.39999999673E+01  0.40000000000E+01  0.51109989000E-03 0. -1.
     -623   -1    0    0    0    0  0.00000000000E+00  0.00000000000E+00  0.12525980253E-10  0.17130000000E+03  0.17130000000E+03 0. -1.
       11    1    1    2    0    0  0.73838649289E-02  0.38623208091E-02  0.38115970231E+00  0.38125112311E+00  0.51109989000E-03 0. -1.
     -623    1    1    2    0    0 -0.25227123674E-03  0.54143955662E-03  0.13218434178E-03  0.17130000000E+03  0.17130000000E+03 0. -1.
      622    1    1    2    0    0 -0.71315936921E-02 -0.44037603657E-02  0.36187080807E+01  0.36187488758E+01  0.15000000000E-01 0. -1.
</event>
<event>
 5   0  0.2306700E+09  0.9118800E+02  0.7818608E-02  0.1180000E+00
       11   -1    0    0    0    0  0.00000000000E+00  0.00000000000E+00  0.39999999673E+01  0.40000000000E+01  0.51109989000E-03 0.  1.
     -623   -1    0    0    0    0  0.00000000000E+00  0.00000000000E+00  0.12525980253E-10  0.17130000000E+03  0.17130000000E+03 0.  1.
       11    1    1    2    0    0  0.18031251798E-01  0.11975414758E-02  0.43665947694E+00  0.43703354582E+00  0.51109989000E-03 0.  1.
     -623    1    1    2    0    0 -0.27679155136E-01  0.90797847618E-02  0.43597385835E-03  0.17130000248E+03  0.17130000000E+03 0.  1.
      622    1    1    2    0    0  0.96479033435E-02 -0.10277326239E-01  0.35629045173E+01  0.35629639775E+01  0.15000000000E-01 0.  1.
</event>
<event>
 5   0  0.2306700E+09  0.9118800E+02  0.7818608E-02  0.1180000E+00
       11   -1    0    0    0    0  0.00000000000E+00  0.00000000000E+00  0.39999999673E+01  0.40000000000E+01  0.51109989000E-03 0. -1.
     -623   -1    0    0    0    0  0.00000000000E+00  0.00000000000E+00  0.12525980253E-10  0.17130000000E+03  0.17130000000E+03 0. -1.
       11    1    1    2    0    0 -0.22169399360E-01 -0.20725988129E-01  0.61479315078E+00  0.61554197933E+00  0.51109989000E-03 0. -1.
     -623    1    1    2    0    0  0.12877316743E-01  0.49849657951E-02  0.83195700292E-03  0.17130000056E+03  0.17130000000E+03 0. -1.
      622    1    1    2    0    0  0.92920826183E-02  0.15741022334E-01  0.33843748593E+01  0.33844574618E+01  0.15000000000E-01 0. -1.
</event>
<event>
 5   0  0.2306700E+09  0.9118800E+02  0.7818608E-02  0.1180000E+00
       11   -1    0    0    0    0  0.00000000000E+00  0.00000000000E+00  0.39999999673E+01  0.40000000000E+01  0.51109989000E-03 0.  1.
     -623   -1    0    0    0    0  0.00000000000E+00  0.00000000000E+00  0.12525980253E-10  0.17130000000E+03  0.17130000000E+03 0.  1.
       11    1    1    2    0    0 -0.63297776917E-03  0.18797460684E-02  0.18320119694E+00  0.18321264664E+00  0.51109989000E-03 0.  1.
     -623    1    1    2    0    0  0.25071081072E-02 -0.15115098202E-02  0.41395133878E-04  0.17130000003E+03  0.17130000000E+03 0.  1.
      622    1    1    2    0    0 -0.18741303469E-02 -0.36823624280E-03  0.38167573894E+01  0.38167873425E+01  0.15000000000E-01 0.  1.
</event>
<event>
 5   0  0.2306700E+09  0.9118800E+02  0.7818608E-02  0.1180000E+00
       11   -1    0    0    0    0  0.00000000000E+00  0.00000000000E+00  0.39999999673E+01  0.40000000000E+01  0.51109989000E-03 0.  1.
     -623   -1    0    0    0    0  0.00000000000E+00  0.00000000000E+00  0.12525980253E-10  0.17130000000E+03  0.17130000000E+03 0.  1.
       11    1    1    2    0    0  0.40341292021E-03 -0.16744962134E-02  0.59816741056E+00  0.59817010871E+00  0.51109989000E-03 0.  1.
     -623    1    1    2    0    0 -0.83756461443E-04  0.15534897020E-03  0.36090428772E-04  0.17130000000E+03  0.17130000000E+03 0.  1.
      622    1    1    2    0    0 -0.31965645878E-03  0.15191472432E-02  0.34017964658E+01  0.34018298907E+01  0.15000000000E-01 0.  1.
</event>
<event>
 5   0  0.2306700E+09  0.9118800E+02  0.7818608E-02  0.1180000E+00
       11   -1    0    0    0    0  0.00000000000E+00  0.00000000000E+00  0.39999999673E+01  0.40000000000E+01  0.51109989000E-03 0. -1.
     -623   -1    0    0    0    0  0.00000000000E+00  0.00000000000E+00  0.12525980253E-10  0.17130000000E+03  0.17130000000E+03 0.  1.
       11    1    1    2    0    0 -0.16431646638E-02 -0.10365142591E-02  0.28470070147E-01  0.28540856134E-01  0.51109989000E-03 0. -1.
     -623    1    1    2    0    0 -0.12767306132E-02  0.12036143914E-02  0.10016648963E-03  0.17130000001E+03  0.17130000000E+03 0.  1.
      622    1    1    2    0    0  0.29198952770E-02 -0.16710013230E-03  0.39714297307E+01  0.39714591348E+01  0.15000000000E-01 0. -1.
</event>
<event>
 5   0  0.2306700E+09  0.9118800E+02  0.7818608E-02  0.1180000E+00
       11   -1    0    0    0    0  0.00000000000E+00  0.00000000000E+00  0.39999999673E+01  0.40000000000E+01  0.51109989000E-03 0. -1.
     -623   -1    0    0    0    0  0.00000000000E+00  0.00000000000E+00  0.12525980253E-10  0.17130000000E+03  0.17130000000E+03 0.  1.
       11    1    1    2    0    0  0.89856625617E-03  0.14048781188E-02  0.25975883596E-01  0.26034378291E-01  0.51109989000E-03 0. -1.
     -623    1    1    2    0    0 -0.21849530464E-02 -0.48506217393E-03  0.87100709636E-04  0.17130000001E+03  0.17130000000E+03 0.  1.
      622    1    1    2    0    0  0.12863867902E-02 -0.91981594488E-03  0.39739369831E+01  0.39739656071E+01  0.15000000000E-01 0. -1.
</event>
<event>
 5   0  0.2306700E+09  0.9118800E+02  0.7818608E-02  0.1180000E+00
       11   -1    0    0    0    0  0.00000000000E+00  0.00000000000E+00  0.39999999673E+01  0.40000000000E+01  0.51109989000E-03 0. -1.
     -623   -1    0    0    0    0  0.00000000000E+00  0.00000000000E+00  0.12525980253E-10  0.17130000000E+03  0.17130000000E+03 0.  1.
       11    1    1    2    0    0  0.26707278527E-03 -0.43147567925E-02  0.13156477844E+00  0.13163677527E+00  0.51109989000E-03 0. -1.
     -623    1    1    2    0    0 -0.13590393838E-03 -0.17202536300E-03  0.10365081201E-03  0.17130000000E+03  0.17130000000E+03 0.  1.
      622    1    1    2    0    0 -0.13116884689E-03  0.44867821555E-02  0.38683315381E+01  0.38683632246E+01  0.15000000000E-01 0. -1.
</event>
<event>
 5   0  0.2306700E+09  0.9118800E+02  0.7818608E-02  0.1180000E+00
       11   -1    0    0    0    0  0.00000000000E+00  0.00000000000E+00  0.39999999673E+01  0.40000000000E+01  0.51109989000E-03 0.  1.
     -623   -1    0    0    0    0  0.00000000000E+00  0.00000000000E+00  0.12525980253E-10  0.17130000000E+03  0.17130000000E+03 0. -1.
       11    1    1    2    0    0  0.11511865375E-01 -0.10011333793E-01  0.12122714177E+00  0.12218441379E+00  0.51109989000E-03 0.  1.
     -623    1    1    2    0    0  0.19857905704E-02 -0.25866285532E-02  0.10302399460E-02  0.17130000003E+03  0.17130000000E+03 0. -1.
      622    1    1    2    0    0 -0.13497655946E-01  0.12597962346E-01  0.38777425858E+01  0.38778155522E+01  0.15000000000E-01 0.  1.
</event>
<event>
 5   0  0.2306700E+09  0.9118800E+02  0.7818608E-02  0.1180000E+00
       11   -1    0    0    0    0  0.00000000000E+00  0.00000000000E+00  0.39999999673E+01  0.40000000000E+01  0.51109989000E-03 0.  1.
     -623   -1    0    0    0    0  0.00000000000E+00  0.00000000000E+00  0.12525980253E-10  0.17130000000E+03  0.17130000000E+03 0.  1.
       11    1    1    2    0    0  0.10156992608E-01 -0.55134144717E-02  0.11116230125E+01  0.11116832037E+01  0.51109989000E-03 0.  1.
     -623    1    1    2    0    0 -0.17850248129E-04  0.31088103573E-03  0.12159126005E-03  0.17130000000E+03  0.17130000000E+03 0.  1.
      622    1    1    2    0    0 -0.10139142360E-01  0.52025334360E-02  0.28882553629E+01  0.28883167953E+01  0.15000000000E-01 0.  1.
</event>
<event>
 5   0  0.2306700E+09  0.9118800E+02  0.7818608E-02  0.1180000E+00
       11   -1    0    0    0    0  0.00000000000E+00  0.00000000000E+00  0.39999999673E+01  0.40000000000E+01  0.51109989000E-03 0. -1.
     -623   -1    0    0    0    0  0.00000000000E+00  0.00000000000E+00  0.12525980253E-10  0.17130000000E+03  0.17130000000E+03 0.  1.
       11    1    1    2    0    0  0.61009282372E-03  0.37435749814E-03  0.44766871233E-02  0.45622699928E-02  0.51109989000E-03 0. -1.
     -623    1    1    2    0    0 -0.43957740243E-03  0.19442126330E-03  0.11375227963E-03  0.17130000000E+03  0.17130000000E+03 0.  1.
      622    1    1    2    0    0 -0.17051542150E-03 -0.56877876134E-03  0.39954095260E+01  0.39954377274E+01  0.15000000000E-01 0. -1.
</event>
<event>
 5   0  0.2306700E+09  0.9118800E+02  0.7818608E-02  0.1180000E+00
       11   -1    0    0    0    0  0.00000000000E+00  0.00000000000E+00  0.39999999673E+01  0.40000000000E+01  0.51109989000E-03 0.  1.
     -623   -1    0    0    0    0  0.00000000000E+00  0.00000000000E+00  0.12525980253E-10  0.17130000000E+03  0.17130000000E+03 0.  1.
       11    1    1    2    0    0  0.53726077137E-03  0.35891869814E-03  0.45050822017E-02  0.45797882604E-02  0.51109989000E-03 0. -1.
     -623    1    1    2    0    0  0.32561650717E-03 -0.11616108402E-03  0.10293168796E-03  0.17130000000E+03  0.17130000000E+03 0.  1.
      622    1    1    2    0    0 -0.86287727868E-03 -0.24275761407E-03  0.39953919553E+01  0.39954202132E+01  0.15000000000E-01 0.  1.
</event>
<event>
 5   0  0.2306700E+09  0.9118800E+02  0.7818608E-02  0.1180000E+00
       11   -1    0    0    0    0  0.00000000000E+00  0.00000000000E+00  0.39999999673E+01  0.40000000000E+01  0.51109989000E-03 0.  1.
     -623   -1    0    0    0    0  0.00000000000E+00  0.00000000000E+00  0.12525980253E-10  0.17130000000E+03  0.17130000000E+03 0.  1.
       11    1    1    2    0    0 -0.14390361478E-02  0.68377629198E-04  0.13991210096E-01  0.14074469211E-01  0.51109989000E-03 0.  1.
     -623    1    1    2    0    0  0.20577463368E-02  0.71002472388E-03  0.11158877930E-03  0.17130000001E+03  0.17130000000E+03 0.  1.
      622    1    1    2    0    0 -0.61871019090E-03 -0.77840235374E-03  0.39858971722E+01  0.39859255207E+01  0.15000000000E-01 0.  1.
</event>
<event>
 5   0  0.2306700E+09  0.9118800E+02  0.7818608E-02  0.1180000E+00
       11   -1    0    0    0    0  0.00000000000E+00  0.00000000000E+00  0.39999999673E+01  0.40000000000E+01  0.51109989000E-03 0. -1.
     -623   -1    0    0    0    0  0.00000000000E+00  0.00000000000E+00  0.12525980253E-10  0.17130000000E+03  0.17130000000E+03 0.  1.
       11    1    1    2    0    0 -0.58960544212E-02 -0.83592774700E-02  0.42632499966E+00  0.42644801270E+00  0.51109989000E-03 0. -1.
     -623    1    1    2    0    0  0.93785653578E-02  0.14113136635E-01  0.16162918831E-03  0.17130000084E+03  0.17130000000E+03 0.  1.
      622    1    1    2    0    0 -0.34825109319E-02 -0.57538591575E-02  0.35735133365E+01  0.35735511471E+01  0.15000000000E-01 0. -1.
</event>
<event>
 5   0  0.2306700E+09  0.9118800E+02  0.7818608E-02  0.1180000E+00
       11   -1    0    0    0    0  0.00000000000E+00  0.00000000000E+00  0.39999999673E+01  0.40000000000E+01  0.51109989000E-03 0. -1.
     -623   -1    0    0    0    0  0.00000000000E+00  0.00000000000E+00  0.12525980253E-10  0.17130000000E+03  0.17130000000E+03 0. -1.
       11    1    1    2    0    0 -0.13418812008E-02 -0.46381743557E-03  0.45191323440E+00  0.45191575368E+00  0.51109989000E-03 0. -1.
     -623    1    1    2    0    0 -0.54492985172E-03  0.15752894605E-02  0.34877922744E-04  0.17130000001E+03  0.17130000000E+03 0. -1.
      622    1    1    2    0    0  0.18868110525E-02 -0.11114720250E-02  0.35480518550E+01  0.35480842382E+01  0.15000000000E-01 0. -1.
</event>
<event>
 5   0  0.2306700E+09  0.9118800E+02  0.7818608E-02  0.1180000E+00
       11   -1    0    0    0    0  0.00000000000E+00  0.00000000000E+00  0.39999999673E+01  0.40000000000E+01  0.51109989000E-03 0. -1.
     -623   -1    0    0    0    0  0.00000000000E+00  0.00000000000E+00  0.12525980253E-10  0.17130000000E+03  0.17130000000E+03 0.  1.
       11    1    1    2    0    0 -0.20526635077E-02 -0.27429184174E-02  0.36526528963E+00  0.36528171328E+00  0.51109989000E-03 0. -1.
     -623    1    1    2    0    0 -0.18250086164E-02 -0.27217057853E-02  0.53550390286E-04  0.17130000003E+03  0.17130000000E+03 0.  1.
      622    1    1    2    0    0  0.38776721242E-02  0.54646242028E-02  0.36346811273E+01  0.36347182554E+01  0.15000000000E-01 0.  0.
</event>
<event>
 5   0  0.2306700E+09  0.9118800E+02  0.7818608E-02  0.1180000E+00
       11   -1    0    0    0    0  0.00000000000E+00  0.00000000000E+00  0.39999999673E+01  0.40000000000E+01  0.51109989000E-03 0. -1.
     -623   -1    0    0    0    0  0.00000000000E+00  0.00000000000E+00  0.12525980253E-10  0.17130000000E+03  0.17130000000E+03 0. -1.
       11    1    1    2    0    0  0.35013810754E-03  0.50523681488E-04  0.19110740926E+00  0.19110842014E+00  0.51109989000E-03 0. -1.
     -623    1    1    2    0    0  0.21423850750E-04 -0.54619948972E-04  0.30532639395E-04  0.17130000000E+03  0.17130000000E+03 0. -1.
      622    1    1    2    0    0 -0.37156195834E-03  0.40962676022E-05  0.38088620342E+01  0.38088915886E+01  0.15000000000E-01 0. -1.
</event>
<event>
 5   0  0.2306700E+09  0.9118800E+02  0.7818608E-02  0.1180000E+00
       11   -1    0    0    0    0  0.00000000000E+00  0.00000000000E+00  0.39999999673E+01  0.40000000000E+01  0.51109989000E-03 0.  1.
     -623   -1    0    0    0    0  0.00000000000E+00  0.00000000000E+00  0.12525980253E-10  0.17130000000E+03  0.17130000000E+03 0. -1.
       11    1    1    2    0    0  0.16479474420E-01 -0.17179266132E-01  0.93564281621E+00  0.93594574683E+00  0.51109989000E-03 0.  1.
     -623    1    1    2    0    0 -0.19749130066E-01  0.10257022361E-01  0.35062410609E-03  0.17130000145E+03  0.17130000000E+03 0. -1.
      622    1    1    2    0    0  0.32696556471E-02  0.69222437705E-02  0.30640065272E+01  0.30640528075E+01  0.15000000000E-01 0.  1.
</event>
<event>
 5   0  0.2306700E+09  0.9118800E+02  0.7818608E-02  0.1180000E+00
       11   -1    0    0    0    0  0.00000000000E+00  0.00000000000E+00  0.39999999673E+01  0.40000000000E+01  0.51109989000E-03 0. -1.
     -623   -1    0    0    0    0  0.00000000000E+00  0.00000000000E+00  0.12525980253E-10  0.17130000000E+03  0.17130000000E+03 0. -1.
       11    1    1    2    0    0  0.28720290319E-02  0.13826788439E-01  0.81314435320E+00  0.81326713261E+00  0.51109989000E-03 0. -1.
     -623    1    1    2    0    0  0.23987989364E-04 -0.52323082301E-03  0.18713583467E-03  0.17130000000E+03  0.17130000000E+03 0. -1.
      622    1    1    2    0    0 -0.28960170213E-02 -0.13303557616E-01  0.31866684783E+01  0.31867328665E+01  0.15000000000E-01 0. -1.
</event>
<event>
 5   0  0.2306700E+09  0.9118800E+02  0.7818608E-02  0.1180000E+00
       11   -1    0    0    0    0  0.00000000000E+00  0.00000000000E+00  0.39999999673E+01  0.40000000000E+01  0.51109989000E-03 0.  1.
     -623   -1    0    0    0    0  0.00000000000E+00  0.00000000000E+00  0.12525980253E-10  0.17130000000E+03  0.17130000000E+03 0. -1.
       11    1    1    2    0    0  0.91370585176E-03 -0.39807500061E-02  0.22249811688E+00  0.22253618687E+00  0.51109989000E-03 0.  1.
     -623    1    1    2    0    0 -0.30057192618E-02  0.10945957000E-01  0.75196338979E-04  0.17130000038E+03  0.17130000000E+03 0. -1.
      622    1    1    2    0    0  0.20920134149E-02 -0.69652070119E-02  0.37774266606E+01  0.37774634435E+01  0.15000000000E-01 0.  1.
</event>
<event>
 5   0  0.2306700E+09  0.9118800E+02  0.7818608E-02  0.1180000E+00
       11   -1    0    0    0    0  0.00000000000E+00  0.00000000000E+00  0.39999999673E+01  0.40000000000E+01  0.51109989000E-03 0. -1.
     -623   -1    0    0    0    0  0.00000000000E+00  0.00000000000E+00  0.12525980253E-10  0.17130000000E+03  0.17130000000E+03 0.  1.
       11    1    1    2    0    0 -0.23428093185E-03 -0.55142278008E-03  0.74003959793E-01  0.74008149836E-01  0.51109989000E-03 0. -1.
     -623    1    1    2    0    0 -0.33547278918E-03  0.83561947245E-03  0.32866685673E-04  0.17130000000E+03  0.17130000000E+03 0.  1.
      622    1    1    2    0    0  0.56975372103E-03 -0.28419669237E-03  0.39259631409E+01  0.39259918478E+01  0.15000000000E-01 0. -1.
</event>
<event>
 5   0  0.2306700E+09  0.9118800E+02  0.7818608E-02  0.1180000E+00
       11   -1    0    0    0    0  0.00000000000E+00  0.00000000000E+00  0.39999999673E+01  0.40000000000E+01  0.51109989000E-03 0.  1.
     -623   -1    0    0    0    0  0.00000000000E+00  0.00000000000E+00  0.12525980253E-10  0.17130000000E+03  0.17130000000E+03 0. -1.
       11    1    1    2    0    0  0.12078715149E-03 -0.34972079675E-03  0.55436641824E-01  0.55440232440E-01  0.51109989000E-03 0.  1.
     -623    1    1    2    0    0 -0.34091521797E-03 -0.24266973302E-03  0.32129510724E-04  0.17130000000E+03  0.17130000000E+03 0. -1.
      622    1    1    2    0    0  0.22012806648E-03  0.59239052977E-03  0.39445311960E+01  0.39445597670E+01  0.15000000000E-01 0.  1.
</event>
<event>
 5   0  0.2306700E+09  0.9118800E+02  0.7818608E-02  0.1180000E+00
       11   -1    0    0    0    0  0.00000000000E+00  0.00000000000E+00  0.39999999673E+01  0.40000000000E+01  0.51109989000E-03 0.  1.
     -623   -1    0    0    0    0  0.00000000000E+00  0.00000000000E+00  0.12525980253E-10  0.17130000000E+03  0.17130000000E+03 0. -1.
       11    1    1    2    0    0  0.49942533578E-03 -0.36302628436E-03  0.54821629357E-01  0.54827488359E-01  0.51109989000E-03 0.  1.
     -623    1    1    2    0    0 -0.70593758423E-03 -0.28296259373E-03  0.34402312901E-04  0.17130000000E+03  0.17130000000E+03 0. -1.
      622    1    1    2    0    0  0.20651224845E-03  0.64598887809E-03  0.39451439357E+01  0.39451725099E+01  0.15000000000E-01 0.  1.
</event>
<event>
 5   0  0.2306700E+09  0.9118800E+02  0.7818608E-02  0.1180000E+00
       11   -1    0    0    0    0  0.00000000000E+00  0.00000000000E+00  0.39999999673E+01  0.40000000000E+01  0.51109989000E-03 0. -1.
     -623   -1    0    0    0    0  0.00000000000E+00  0.00000000000E+00  0.12525980253E-10  0.17130000000E+03  0.17130000000E+03 0. -1.
       11    1    1    2    0    0 -0.48174371125E-02 -0.32264637937E-02  0.43136836833E+00  0.43140763575E+00  0.51109989000E-03 0. -1.
     -623    1    1    2    0    0  0.39113538717E-02  0.45678285438E-02  0.71232661095E-04  0.17130000011E+03  0.17130000000E+03 0. -1.
      622    1    1    2    0    0  0.90608323768E-03 -0.13413647537E-02  0.35685603695E+01  0.35685922618E+01  0.15000000000E-01 0. -1.
</event>
<event>
 5   0  0.2306700E+09  0.9118800E+02  0.7818608E-02  0.1180000E+00
       11   -1    0    0    0    0  0.00000000000E+00  0.00000000000E+00  0.39999999673E+01  0.40000000000E+01  0.51109989000E-03 0. -1.
     -623   -1    0    0    0    0  0.00000000000E+00  0.00000000000E+00  0.12525980253E-10  0.17130000000E+03  0.17130000000E+03 0.  1.
       11    1    1    2    0    0 -0.58900909037E-02  0.71910504081E-02  0.25156137377E+00  0.25173357021E+00  0.51109989000E-03 0. -1.
     -623    1    1    2    0    0  0.36512762642E-02 -0.28495631583E-02  0.20542347310E-03  0.17130000006E+03  0.17130000000E+03 0.  1.
      622    1    1    2    0    0  0.22388146395E-02 -0.43414872498E-02  0.37482331701E+01  0.37482663671E+01  0.15000000000E-01 0. -1.
</event>
<event>
 5   0  0.2306700E+09  0.9118800E+02  0.7818608E-02  0.1180000E+00
       11   -1    0    0    0    0  0.00000000000E+00  0.00000000000E+00  0.39999999673E+01  0.40000000000E+01  0.51109989000E-03 0. -1.
     -623   -1    0    0    0    0  0.00000000000E+00  0.00000000000E+00  0.12525980253E-10  0.17130000000E+03  0.17130000000E+03 0.  1.
       11    1    1    2    0    0  0.41611293811E-02  0.22262072518E-02  0.70476823535E-01  0.70636498180E-01  0.51109989000E-03 0. -1.
     -623    1    1    2    0    0  0.77848565641E-03 -0.17337215294E-02  0.19141903946E-03  0.17130000001E+03  0.17130000000E+03 0.  1.
      622    1    1    2    0    0 -0.49396150373E-02 -0.49248572291E-03  0.39293317236E+01  0.39293634900E+01  0.15000000000E-01 0. -1.
</event>
<event>
 5   0  0.2306700E+09  0.9118800E+02  0.7818608E-02  0.1180000E+00
       11   -1    0    0    0    0  0.00000000000E+00  0.00000000000E+00  0.39999999673E+01  0.40000000000E+01  0.51109989000E-03 0. -1.
     -623   -1    0    0    0    0  0.00000000000E+00  0.00000000000E+00  0.12525980253E-10  0.17130000000E+03  0.17130000000E+03 0. -1.
       11    1    1    2    0    0  0.27652055691E-02  0.46241933570E-03  0.38928346579E+00  0.38929389689E+00  0.51109989000E-03 0.  1.
     -623    1    1    2    0    0  0.15551659533E-03  0.51064077561E-04  0.42773831334E-04  0.17130000000E+03  0.17130000000E+03 0. -1.
      622    1    1    2    0    0 -0.29207221644E-02 -0.51348341326E-03  0.36106737277E+01  0.36107061030E+01  0.15000000000E-01 0. -1.
</event>
<event>
 5   0  0.2306700E+09  0.9118800E+02  0.7818608E-02  0.1180000E+00
       11   -1    0    0    0    0  0.00000000000E+00  0.00000000000E+00  0.39999999673E+01  0.40000000000E+01  0.51109989000E-03 0.  1.
     -623   -1    0    0    0    0  0.00000000000E+00  0.00000000000E+00  0.12525980253E-10  0.17130000000E+03  0.17130000000E+03 0. -1.
       11    1    1    2    0    0  0.40673259122E-03 -0.44251164232E-03  0.92721453117E-02  0.93056513573E-02  0.51109989000E-03 0. -1.
     -623    1    1    2    0    0 -0.89142537564E-03 -0.67661974722E-03  0.61854112483E-04  0.17130000000E+03  0.17130000000E+03 0. -1.
      622    1    1    2    0    0  0.48469278443E-03  0.11191313895E-02  0.39906659679E+01  0.39906943450E+01  0.15000000000E-01 0.  1.
</event>
<event>
 5   0  0.2306700E+09  0.9118800E+02  0.7818608E-02  0.1180000E+00
       11   -1    0    0    0    0  0.00000000000E+00  0.00000000000E+00  0.39999999673E+01  0.40000000000E+01  0.51109989000E-03 0. -1.
     -623   -1    0    0    0    0  0.00000000000E+00  0.00000000000E+00  0.12525980253E-10  0.17130000000E+03  0.17130000000E+03 0. -1.
       11    1    1    2    0    0 -0.57192275475E-03 -0.54551316142E-03  0.99511528246E-01  0.99515979406E-01  0.51109989000E-03 0. -1.
     -623    1    1    2    0    0  0.48537736463E-03 -0.15843545126E-03  0.33326449148E-04  0.17130000000E+03  0.17130000000E+03 0. -1.
      622    1    1    2    0    0  0.86545389328E-04  0.70394861294E-03  0.39004551191E+01  0.39004840263E+01  0.15000000000E-01 0. -1.
</event>
<event>
 5   0  0.2306700E+09  0.9118800E+02  0.7818608E-02  0.1180000E+00
       11   -1    0    0    0    0  0.00000000000E+00  0.00000000000E+00  0.39999999673E+01  0.40000000000E+01  0.51109989000E-03 0.  1.
     -623   -1    0    0    0    0  0.00000000000E+00  0.00000000000E+00  0.12525980253E-10  0.17130000000E+03  0.17130000000E+03 0.  1.
       11    1    1    2    0    0  0.54670808602E-02  0.56334582438E-02  0.11082960505E+00  0.11110844884E+00  0.51109989000E-03 0.  1.
     -623    1    1    2    0    0  0.13135432108E-03 -0.35808239939E-02  0.31234906221E-03  0.17130000004E+03  0.17130000000E+03 0.  1.
      622    1    1    2    0    0 -0.55984351813E-02 -0.20526342507E-02  0.38888580123E+01  0.38888915125E+01  0.15000000000E-01 0.  1.
</event>
<event>
 5   0  0.2306700E+09  0.9118800E+02  0.7818608E-02  0.1180000E+00
       11   -1    0    0    0    0  0.00000000000E+00  0.00000000000E+00  0.39999999673E+01  0.40000000000E+01  0.51109989000E-03 0.  1.
     -623   -1    0    0    0    0  0.00000000000E+00  0.00000000000E+00  0.12525980253E-10  0.17130000000E+03  0.17130000000E+03 0. -1.
       11    1    1    2    0    0  0.37192834754E-03 -0.14811133564E-02  0.24236911913E-01  0.24290350905E-01  0.51109989000E-03 0.  1.
     -623    1    1    2    0    0  0.35709595142E-03  0.99483331885E-03  0.81803147672E-04  0.17130000000E+03  0.17130000000E+03 0. -1.
      622    1    1    2    0    0 -0.72902429896E-03  0.48628003754E-03  0.39756812523E+01  0.39757096458E+01  0.15000000000E-01 0.  1.
</event>
<event>
 5   0  0.2306700E+09  0.9118800E+02  0.7818608E-02  0.1180000E+00
       11   -1    0    0    0    0  0.00000000000E+00  0.00000000000E+00  0.39999999673E+01  0.40000000000E+01  0.51109989000E-03 0. -1.
     -623   -1    0    0    0    0  0.00000000000E+00  0.00000000000E+00  0.12525980253E-10  0.17130000000E+03  0.17130000000E+03 0. -1.
       11    1    1    2    0    0  0.76398370999E-03 -0.30920095830E-02  0.10069212350E+00  0.10074377972E+00  0.51109989000E-03 0. -1.
     -623    1    1    2    0    0  0.25345646973E-03  0.83728048253E-04  0.81768768680E-04  0.17130000000E+03  0.17130000000E+03 0. -1.
      622    1    1    2    0    0 -0.10174401799E-02  0.30082815347E-02  0.38992260775E+01  0.38992562224E+01  0.15000000000E-01 0. -1.
</event>
<event>
 5   0  0.2306700E+09  0.9118800E+02  0.7818608E-02  0.1180000E+00
       11   -1    0    0    0    0  0.00000000000E+00  0.00000000000E+00  0.39999999673E+01  0.40000000000E+01  0.51109989000E-03 0.  1.
     -623   -1    0    0    0    0  0.00000000000E+00  0.00000000000E+00  0.12525980253E-10  0.17130000000E+03  0.17130000000E+03 0. -1.
       11    1    1    2    0    0  0.10225710710E-02  0.74177348621E-03  0.28091868817E-02  0.31222801818E-02  0.51109989000E-03 0. -1.
     -623    1    1    2    0    0 -0.28254817579E-03  0.51218707703E-03  0.34147428420E-03  0.17130000000E+03  0.17130000000E+03 0. -1.
      622    1    1    2    0    0 -0.74002289517E-03 -0.12539605632E-02  0.39968493060E+01  0.39968777183E+01  0.15000000000E-01 0.  1.
</event>
<event>
 5   0  0.2306700E+09  0.9118800E+02  0.7818608E-02  0.1180000E+00
       11   -1    0    0    0    0  0.00000000000E+00  0.00000000000E+00  0.39999999673E+01  0.40000000000E+01  0.51109989000E-03 0. -1.
     -623   -1    0    0    0    0  0.00000000000E+00  0.00000000000E+00  0.12525980253E-10  0.17130000000E+03  0.17130000000E+03 0. -1.
       11    1    1    2    0    0 -0.12033597672E-02 -0.82549191185E-03  0.30105982852E-01  0.30145662014E-01  0.51109989000E-03 0. -1.
     -623    1    1    2    0    0  0.36555087908E-04  0.82883305217E-03  0.68158689908E-04  0.17130000000E+03  0.17130000000E+03 0. -1.
      622    1    1    2    0    0  0.11668046792E-02 -0.33411416513E-05  0.39698258322E+01  0.39698543424E+01  0.15000000000E-01 0. -1.
</event>
<event>
 5   0  0.2306700E+09  0.9118800E+02  0.7818608E-02  0.1180000E+00
       11   -1    0    0    0    0  0.00000000000E+00  0.00000000000E+00  0.39999999673E+01  0.40000000000E+01  0.51109989000E-03 0.  1.
     -623   -1    0    0    0    0  0.00000000000E+00  0.00000000000E+00  0.12525980253E-10  0.17130000000E+03  0.17130000000E+03 0. -1.
       11    1    1    2    0    0  0.13025473623E-02 -0.25051228831E-02  0.37068237764E+00  0.37069348333E+00  0.51109989000E-03 0.  1.
     -623    1    1    2    0    0 -0.37354223012E-02 -0.12667935167E-02  0.44891779027E-04  0.17130000005E+03  0.17130000000E+03 0. -1.
      622    1    1    2    0    0  0.24328749389E-02  0.37719163999E-02  0.36292726979E+01  0.36293064712E+01  0.15000000000E-01 0.  1.
</event>
<event>
 5   0  0.2306700E+09  0.9118800E+02  0.7818608E-02  0.1180000E+00
       11   -1    0    0    0    0  0.00000000000E+00  0.00000000000E+00  0.39999999673E+01  0.40000000000E+01  0.51109989000E-03 0. -1.
     -623   -1    0    0    0    0  0.00000000000E+00  0.00000000000E+00  0.12525980253E-10  0.17130000000E+03  0.17130000000E+03 0. -1.
       11    1    1    2    0    0 -0.27241608726E-02  0.83351674356E-04  0.47666385316E+00  0.47667191876E+00  0.51109989000E-03 0. -1.
     -623    1    1    2    0    0  0.67370670975E-03  0.51258065799E-03  0.40612287008E-04  0.17130000000E+03  0.17130000000E+03 0. -1.
      622    1    1    2    0    0  0.20504541628E-02 -0.59593233235E-03  0.35232955019E+01  0.35233280791E+01  0.15000000000E-01 0. -1.
</event>
<event>
 5   0  0.2306700E+09  0.9118800E+02  0.7818608E-02  0.1180000E+00
       11   -1    0    0    0    0  0.00000000000E+00  0.00000000000E+00  0.39999999673E+01  0.40000000000E+01  0.51109989000E-03 0. -1.
     -623   -1    0    0    0    0  0.00000000000E+00  0.00000000000E+00  0.12525980253E-10  0.17130000000E+03  0.17130000000E+03 0. -1.
       11    1    1    2    0    0  0.68473329344E-03  0.16561864485E-02  0.10204513352E+00  0.10206214926E+00  0.51109989000E-03 0. -1.
     -623    1    1    2    0    0 -0.44588200906E-03 -0.37289209252E-04  0.46188712908E-04  0.17130000000E+03  0.17130000000E+03 0. -1.
      622    1    1    2    0    0 -0.23885128307E-03 -0.16188972391E-02  0.38979086568E+01  0.38979378618E+01  0.15000000000E-01 0. -1.
</event>
<event>
 5   0  0.2306700E+09  0.9118800E+02  0.7818608E-02  0.1180000E+00
       11   -1    0    0    0    0  0.00000000000E+00  0.00000000000E+00  0.39999999673E+01  0.40000000000E+01  0.51109989000E-03 0.  1.
     -623   -1    0    0    0    0  0.00000000000E+00  0.00000000000E+00  0.12525980253E-10  0.17130000000E+03  0.17130000000E+03 0.  1.
       11    1    1    2    0    0 -0.12490731512E-01 -0.72969336504E-02  0.34379733334E+00  0.34410191986E+00  0.51109989000E-03 0.  1.
     -623    1    1    2    0    0  0.78850061029E-03 -0.15268049505E-02  0.36471283509E-03  0.17130000001E+03  0.17130000000E+03 0.  1.
      622    1    1    2    0    0  0.11702230902E-01  0.88237386009E-02  0.36558379212E+01  0.36558980711E+01  0.15000000000E-01 0.  1.
</event>
<event>
 5   0  0.2306700E+09  0.9118800E+02  0.7818608E-02  0.1180000E+00
       11   -1    0    0    0    0  0.00000000000E+00  0.00000000000E+00  0.39999999673E+01  0.40000000000E+01  0.51109989000E-03 0. -1.
     -623   -1    0    0    0    0  0.00000000000E+00  0.00000000000E+00  0.12525980253E-10  0.17130000000E+03  0.17130000000E+03 0.  1.
       11    1    1    2    0    0 -0.40279804685E-04  0.64252759566E-03  0.47321906901E-02  0.48030527791E-02  0.51109989000E-03 0. -1.
     -623    1    1    2    0    0 -0.36123860848E-03 -0.32227088450E-03  0.99022085422E-04  0.17130000000E+03  0.17130000000E+03 0.  1.
      622    1    1    2    0    0  0.40151841311E-03 -0.32025671121E-03  0.39951687540E+01  0.39951969459E+01  0.15000000000E-01 0. -1.
</event>
<event>
 5   0  0.2306700E+09  0.9118800E+02  0.7818608E-02  0.1180000E+00
       11   -1    0    0    0    0  0.00000000000E+00  0.00000000000E+00  0.39999999673E+01  0.40000000000E+01  0.51109989000E-03 0.  1.
     -623   -1    0    0    0    0  0.00000000000E+00  0.00000000000E+00  0.12525980253E-10  0.17130000000E+03  0.17130000000E+03 0.  1.
       11    1    1    2    0    0 -0.40004973118E-02  0.36534101121E-02  0.17301734894E+00  0.17310290477E+00  0.51109989000E-03 0.  1.
     -623    1    1    2    0    0 -0.10520127683E-02 -0.44944398552E-03  0.11960092310E-03  0.17130000000E+03  0.17130000000E+03 0.  1.
      622    1    1    2    0    0  0.50525100801E-02 -0.32039661266E-02  0.38268630175E+01  0.38268970914E+01  0.15000000000E-01 0.  1.
</event>
<event>
 5   0  0.2306700E+09  0.9118800E+02  0.7818608E-02  0.1180000E+00
       11   -1    0    0    0    0  0.00000000000E+00  0.00000000000E+00  0.39999999673E+01  0.40000000000E+01  0.51109989000E-03 0.  1.
     -623   -1    0    0    0    0  0.00000000000E+00  0.00000000000E+00  0.12525980253E-10  0.17130000000E+03  0.17130000000E+03 0.  1.
       11    1    1    2    0    0  0.10698525895E-02 -0.59372721305E-02  0.48341261003E-01  0.48718933906E-01  0.51109989000E-03 0.  1.
     -623    1    1    2    0    0  0.91197414459E-04 -0.13947462728E-02  0.41309165017E-03  0.17130000001E+03  0.17130000000E+03 0.  1.
      622    1    1    2    0    0 -0.11610500040E-02  0.73320184033E-02  0.39512456147E+01  0.39512810599E+01  0.15000000000E-01 0.  1.
</event>
<event>
 5   0  0.2306700E+09  0.9118800E+02  0.7818608E-02  0.1180000E+00
       11   -1    0    0    0    0  0.00000000000E+00  0.00000000000E+00  0.39999999673E+01  0.40000000000E+01  0.51109989000E-03 0.  1.
     -623   -1    0    0    0    0  0.00000000000E+00  0.00000000000E+00  0.12525980253E-10  0.17130000000E+03  0.17130000000E+03 0.  1.
       11    1    1    2    0    0 -0.26073902575E-02 -0.43705383382E-02  0.40046169845E-01  0.40371487856E-01  0.51109989000E-03 0.  1.
     -623    1    1    2    0    0  0.71569825179E-02 -0.58038375182E-02  0.36963100480E-03  0.17130000025E+03  0.17130000000E+03 0.  1.
      622    1    1    2    0    0 -0.45495922609E-02  0.10174375857E-01  0.39595841668E+01  0.39596282642E+01  0.15000000000E-01 0.  1.
</event>
<event>
 5   0  0.2306700E+09  0.9118800E+02  0.7818608E-02  0.1180000E+00
       11   -1    0    0    0    0  0.00000000000E+00  0.00000000000E+00  0.39999999673E+01  0.40000000000E+01  0.51109989000E-03 0.  1.
     -623   -1    0    0    0    0  0.00000000000E+00  0.00000000000E+00  0.12525980253E-10  0.17130000000E+03  0.17130000000E+03 0.  1.
       11    1    1    2    0    0 -0.30643624669E-02 -0.77736921022E-02  0.76961965273E-01  0.77415928125E-01  0.51109989000E-03 0.  1.
     -623    1    1    2    0    0 -0.10846728429E-02  0.50577254144E-02  0.48582374053E-03  0.17130000008E+03  0.17130000000E+03 0.  1.
      622    1    1    2    0    0  0.41490353098E-02  0.27159666878E-02  0.39225521783E+01  0.39225839931E+01  0.15000000000E-01 0.  1.
</event>
<event>
 5   0  0.2306700E+09  0.9118800E+02  0.7818608E-02  0.1180000E+00
       11   -1    0    0    0    0  0.00000000000E+00  0.00000000000E+00  0.39999999673E+01  0.40000000000E+01  0.51109989000E-03 0. -1.
     -623   -1    0    0    0    0  0.00000000000E+00  0.00000000000E+00  0.12525980253E-10  0.17130000000E+03  0.17130000000E+03 0.  1.
       11    1    1    2    0    0 -0.11984489987E-01 -0.70202026052E-02  0.39134858735E+00  0.39159531316E+00  0.51109989000E-03 0. -1.
     -623    1    1    2    0    0 -0.21541775960E-02 -0.38934022291E-03  0.31319217759E-03  0.17130000001E+03  0.17130000000E+03 0.  1.
      622    1    1    2    0    0  0.14138667583E-01  0.74095428281E-02  0.36083381878E+01  0.36084046726E+01  0.15000000000E-01 0. -1.
</event>
<event>
 5   0  0.2306700E+09  0.9118800E+02  0.7818608E-02  0.1180000E+00
       11   -1    0    0    0    0  0.00000000000E+00  0.00000000000E+00  0.39999999673E+01  0.40000000000E+01  0.51109989000E-03 0.  1.
     -623   -1    0    0    0    0  0.00000000000E+00  0.00000000000E+00  0.12525980253E-10  0.17130000000E+03  0.17130000000E+03 0. -1.
       11    1    1    2    0    0 -0.15097536780E-02  0.26045845594E-02  0.17266396090E+00  0.17269096049E+00  0.51109989000E-03 0.  1.
     -623    1    1    2    0    0  0.15069986911E-03  0.16405359025E-03  0.57603941278E-04  0.17130000000E+03  0.17130000000E+03 0. -1.
      622    1    1    2    0    0  0.13590538088E-02 -0.27686381496E-02  0.38272784025E+01  0.38273090394E+01  0.15000000000E-01 0.  1.
</event>
<event>
 5   0  0.2306700E+09  0.9118800E+02  0.7818608E-02  0.1180000E+00
       11   -1    0    0    0    0  0.00000000000E+00  0.00000000000E+00  0.39999999673E+01  0.40000000000E+01  0.51109989000E-03 0.  1.
     -623   -1    0    0    0    0  0.00000000000E+00  0.00000000000E+00  0.12525980253E-10  0.17130000000E+03  0.17130000000E+03 0.  1.
       11    1    1    2    0    0 -0.22767475533E-03  0.82152276171E-03  0.37038871142E-01  0.37052205521E-01  0.51109989000E-03 0.  1.
     -623    1    1    2    0    0  0.36261759456E-03 -0.18998064461E-03  0.41742914144E-04  0.17130000000E+03  0.17130000000E+03 0.  1.
      622    1    1    2    0    0 -0.13494283943E-03 -0.63154211700E-03  0.39629193554E+01  0.39629477961E+01  0.15000000000E-01 0.  1.
</event>
<event>
 5   0  0.2306700E+09  0.9118800E+02  0.7818608E-02  0.1180000E+00
       11   -1    0    0    0    0  0.00000000000E+00  0.00000000000E+00  0.39999999673E+01  0.40000000000E+01  0.51109989000E-03 0.  1.
     -623   -1    0    0    0    0  0.00000000000E+00  0.00000000000E+00  0.12525980253E-10  0.17130000000E+03  0.17130000000E+03 0. -1.
       11    1    1    2    0    0 -0.14303930185E-02  0.32145170325E-02  0.14192919873E+00  0.14197372228E+00  0.51109989000E-03 0.  1.
     -623    1    1    2    0    0 -0.12427073909E-03  0.36912950289E-03  0.75629117688E-04  0.17130000000E+03  0.17130000000E+03 0. -1.
      622    1    1    2    0    0  0.15546637576E-02 -0.35836465353E-02  0.38579951391E+01  0.38580262769E+01  0.15000000000E-01 0.  0.
</event>
<event>
 5   0  0.2306700E+09  0.9118800E+02  0.7818608E-02  0.1180000E+00
       11   -1    0    0    0    0  0.00000000000E+00  0.00000000000E+00  0.39999999673E+01  0.40000000000E+01  0.51109989000E-03 0. -1.
     -623   -1    0    0    0    0  0.00000000000E+00  0.00000000000E+00  0.12525980253E-10  0.17130000000E+03  0.17130000000E+03 0. -1.
       11    1    1    2    0    0  0.72430588292E-03  0.10734586024E-02  0.15993621603E+00  0.15994227506E+00  0.51109989000E-03 0. -1.
     -623    1    1    2    0    0  0.27851507737E-02 -0.37386808627E-02  0.37914976540E-04  0.17130000006E+03  0.17130000000E+03 0. -1.
      622    1    1    2    0    0 -0.35094566600E-02  0.26652222648E-02  0.38400258412E+01  0.38400576664E+01  0.15000000000E-01 0. -1.
</event>
<event>
 5   0  0.2306700E+09  0.9118800E+02  0.7818608E-02  0.1180000E+00
       11   -1    0    0    0    0  0.00000000000E+00  0.00000000000E+00  0.39999999673E+01  0.40000000000E+01  0.51109989000E-03 0.  1.
     -623   -1    0    0    0    0  0.00000000000E+00  0.00000000000E+00  0.12525980253E-10  0.17130000000E+03  0.17130000000E+03 0.  1.
       11    1    1    2    0    0 -0.32585968093E-02  0.30052538887E-02  0.18193803500E+00  0.18199274657E+00  0.51109989000E-03 0.  1.
     -623    1    1    2    0    0 -0.75787506673E-03  0.38407124175E-03  0.87763857234E-04  0.17130000000E+03  0.17130000000E+03 0.  1.
      622    1    1    2    0    0  0.40164718760E-02 -0.33893251304E-02  0.38179741684E+01  0.38180072512E+01  0.15000000000E-01 0.  1.
</event>
<event>
 5   0  0.2306700E+09  0.9118800E+02  0.7818608E-02  0.1180000E+00
       11   -1    0    0    0    0  0.00000000000E+00  0.00000000000E+00  0.39999999673E+01  0.40000000000E+01  0.51109989000E-03 0.  1.
     -623   -1    0    0    0    0  0.00000000000E+00  0.00000000000E+00  0.12525980253E-10  0.17130000000E+03  0.17130000000E+03 0.  1.
       11    1    1    2    0    0 -0.90854570416E-04  0.29551055258E-03  0.10988455236E+00  0.10988617589E+00  0.51109989000E-03 0.  1.
     -623    1    1    2    0    0 -0.61937259466E-03 -0.23703732174E-03  0.30577018981E-04  0.17130000000E+03  0.17130000000E+03 0.  1.
      622    1    1    2    0    0  0.71022716470E-03 -0.58473230994E-04  0.38900848355E+01  0.38901138204E+01  0.15000000000E-01 0.  1.
</event>
<event>
 5   0  0.2306700E+09  0.9118800E+02  0.7818608E-02  0.1180000E+00
       11   -1    0    0    0    0  0.00000000000E+00  0.00000000000E+00  0.39999999673E+01  0.40000000000E+01  0.51109989000E-03 0. -1.
     -623   -1    0    0    0    0  0.00000000000E+00  0.00000000000E+00  0.12525980253E-10  0.17130000000E+03  0.17130000000E+03 0.  1.
       11    1    1    2    0    0  0.78111907130E-02 -0.10262786675E-02  0.17597114479E+00  0.17614815630E+00  0.51109989000E-03 0. -1.
     -623    1    1    2    0    0 -0.11565426184E-03  0.27397313055E-03  0.21421771631E-03  0.17130000000E+03  0.17130000000E+03 0.  1.
      622    1    1    2    0    0 -0.76955364511E-02  0.75230553698E-03  0.38238146049E+01  0.38238518433E+01  0.15000000000E-01 0. -1.
</event>
<event>
 5   0  0.2306700E+09  0.9118800E+02  0.7818608E-02  0.1180000E+00
       11   -1    0    0    0    0  0.00000000000E+00  0.00000000000E+00  0.39999999673E+01  0.40000000000E+01  0.51109989000E-03 0.  1.
     -623   -1    0    0    0    0  0.00000000000E+00  0.00000000000E+00  0.12525980253E-10  0.17130000000E+03  0.17130000000E+03 0.  1.
       11    1    1    2    0    0 -0.21006181249E-01 -0.19880424971E-01  0.65660548680E+00  0.65724235824E+00  0.51109989000E-03 0.  1.
     -623    1    1    2    0    0  0.17610327198E-01  0.92527183810E-02  0.69026991664E-03  0.17130000116E+03  0.17130000000E+03 0.  1.
      622    1    1    2    0    0  0.33958540515E-02  0.10627706590E-01  0.33427042106E+01  0.33427564853E+01  0.15000000000E-01 0.  1.
</event>
<event>
 5   0  0.2306700E+09  0.9118800E+02  0.7818608E-02  0.1180000E+00
       11   -1    0    0    0    0  0.00000000000E+00  0.00000000000E+00  0.39999999673E+01  0.40000000000E+01  0.51109989000E-03 0.  1.
     -623   -1    0    0    0    0  0.00000000000E+00  0.00000000000E+00  0.12525980253E-10  0.17130000000E+03  0.17130000000E+03 0. -1.
       11    1    1    2    0    0  0.71144745820E-02  0.37144765598E-02  0.91655579628E+00  0.91659107676E+00  0.51109989000E-03 0.  1.
     -623    1    1    2    0    0  0.69951740135E-03 -0.45875565628E-03  0.83355834943E-04  0.17130000000E+03  0.17130000000E+03 0. -1.
      622    1    1    2    0    0 -0.78139919833E-02 -0.32557209035E-02  0.30833608152E+01  0.30834089212E+01  0.15000000000E-01 0.  1.
</event>
<event>
 5   0  0.2306700E+09  0.9118800E+02  0.7818608E-02  0.1180000E+00
       11   -1    0    0    0    0  0.00000000000E+00  0.00000000000E+00  0.39999999673E+01  0.40000000000E+01  0.51109989000E-03 0.  1.
     -623   -1    0    0    0    0  0.00000000000E+00  0.00000000000E+00  0.12525980253E-10  0.17130000000E+03  0.17130000000E+03 0. -1.
       11    1    1    2    0    0 -0.25913906081E-03  0.32400535184E-02  0.31726493957E-01  0.31896657219E-01  0.51109989000E-03 0.  1.
     -623    1    1    2    0    0  0.41096807589E-03  0.91665575577E-03  0.20066492322E-03  0.17130000000E+03  0.17130000000E+03 0. -1.
      622    1    1    2    0    0 -0.15182901523E-03 -0.41567092745E-02  0.39680728099E+01  0.39681033412E+01  0.15000000000E-01 0.  1.
</event>
<event>
 5   0  0.2306700E+09  0.9118800E+02  0.7818608E-02  0.1180000E+00
       11   -1    0    0    0    0  0.00000000000E+00  0.00000000000E+00  0.39999999673E+01  0.40000000000E+01  0.51109989000E-03 0.  1.
     -623   -1    0    0    0    0  0.00000000000E+00  0.00000000000E+00  0.12525980253E-10  0.17130000000E+03  0.17130000000E+03 0. -1.
       11    1    1    2    0    0  0.46840625241E-02 -0.29192129636E-02  0.31423965800E-01  0.31909075398E-01  0.51109989000E-03 0.  1.
     -623    1    1    2    0    0 -0.59471836045E-02 -0.26648773516E-02  0.51768314427E-03  0.17130000012E+03  0.17130000000E+03 0. -1.
      622    1    1    2    0    0  0.12631210804E-02  0.55840903153E-02  0.39680583184E+01  0.39680907999E+01  0.15000000000E-01 0.  1.
</event>
<event>
 5   0  0.2306700E+09  0.9118800E+02  0.7818608E-02  0.1180000E+00
       11   -1    0    0    0    0  0.00000000000E+00  0.00000000000E+00  0.39999999673E+01  0.40000000000E+01  0.51109989000E-03 0. -1.
     -623   -1    0    0    0    0  0.00000000000E+00  0.00000000000E+00  0.12525980253E-10  0.17130000000E+03  0.17130000000E+03 0. -1.
       11    1    1    2    0    0 -0.14465180395E-02  0.89901320120E-03  0.38782263443E-01  0.38823006324E-01  0.51109989000E-03 0. -1.
     -623    1    1    2    0    0  0.19839977290E-03  0.62092322778E-03  0.69600489797E-04  0.17130000000E+03  0.17130000000E+03 0. -1.
      622    1    1    2    0    0  0.12481182667E-02 -0.15199364288E-02  0.39611481021E+01  0.39611769911E+01  0.15000000000E-01 0. -1.
</event>
<event>
 5   0  0.2306700E+09  0.9118800E+02  0.7818608E-02  0.1180000E+00
       11   -1    0    0    0    0  0.00000000000E+00  0.00000000000E+00  0.39999999673E+01  0.40000000000E+01  0.51109989000E-03 0. -1.
     -623   -1    0    0    0    0  0.00000000000E+00  0.00000000000E+00  0.12525980253E-10  0.17130000000E+03  0.17130000000E+03 0. -1.
       11    1    1    2    0    0  0.23777605421E-03  0.67336246007E-03  0.14954292463E+00  0.14954550306E+00  0.51109989000E-03 0. -1.
     -623    1    1    2    0    0 -0.67491550795E-04 -0.23055919466E-04  0.31821926315E-04  0.17130000000E+03  0.17130000000E+03 0. -1.
      622    1    1    2    0    0 -0.17028450328E-03 -0.65030654056E-03  0.38504252286E+01  0.38504545047E+01  0.15000000000E-01 0. -1.
</event>
<event>
 5   0  0.2306700E+09  0.9118800E+02  0.7818608E-02  0.1180000E+00
       11   -1    0    0    0    0  0.00000000000E+00  0.00000000000E+00  0.39999999673E+01  0.40000000000E+01  0.51109989000E-03 0. -1.
     -623   -1    0    0    0    0  0.00000000000E+00  0.00000000000E+00  0.12525980253E-10  0.17130000000E+03  0.17130000000E+03 0. -1.
       11    1    1    2    0    0 -0.15146095989E-02  0.10663879614E-02  0.68227842543E-02  0.70882179425E-02  0.51109989000E-03 0. -1.
     -623    1    1    2    0    0  0.47779667021E-03  0.25093757420E-03  0.29392909424E-03  0.17130000000E+03  0.17130000000E+03 0. -1.
      622    1    1    2    0    0  0.10368129286E-02 -0.13173255357E-02  0.39928832552E+01  0.39929117821E+01  0.15000000000E-01 0. -1.
</event>
<event>
 5   0  0.2306700E+09  0.9118800E+02  0.7818608E-02  0.1180000E+00
       11   -1    0    0    0    0  0.00000000000E+00  0.00000000000E+00  0.39999999673E+01  0.40000000000E+01  0.51109989000E-03 0. -1.
     -623   -1    0    0    0    0  0.00000000000E+00  0.00000000000E+00  0.12525980253E-10  0.17130000000E+03  0.17130000000E+03 0. -1.
       11    1    1    2    0    0  0.68062805524E-03  0.24012353746E-02  0.22939070775E+00  0.22940485438E+00  0.51109989000E-03 0. -1.
     -623    1    1    2    0    0 -0.29165000857E-03  0.21856085086E-03  0.44880819372E-04  0.17130000000E+03  0.17130000000E+03 0. -1.
      622    1    1    2    0    0 -0.38897804634E-03 -0.26197962257E-02  0.37705643832E+01  0.37705951497E+01  0.15000000000E-01 0. -1.
</event>
<event>
 5   0  0.2306700E+09  0.9118800E+02  0.7818608E-02  0.1180000E+00
       11   -1    0    0    0    0  0.00000000000E+00  0.00000000000E+00  0.39999999673E+01  0.40000000000E+01  0.51109989000E-03 0.  1.
     -623   -1    0    0    0    0  0.00000000000E+00  0.00000000000E+00  0.12525980253E-10  0.17130000000E+03  0.17130000000E+03 0.  1.
       11    1    1    2    0    0  0.83759625573E-03  0.60897718331E-03  0.66600945271E-01  0.66610956707E-01  0.51109989000E-03 0.  1.
     -623    1    1    2    0    0  0.18552909480E-03  0.41963134947E-03  0.38848368308E-04  0.17130000000E+03  0.17130000000E+03 0.  1.
      622    1    1    2    0    0 -0.10231253505E-02 -0.10286085328E-02  0.39333601737E+01  0.39333890427E+01  0.15000000000E-01 0.  1.
</event>
<event>
 5   0  0.2306700E+09  0.9118800E+02  0.7818608E-02  0.1180000E+00
       11   -1    0    0    0    0  0.00000000000E+00  0.00000000000E+00  0.39999999673E+01  0.40000000000E+01  0.51109989000E-03 0.  1.
     -623   -1    0    0    0    0  0.00000000000E+00  0.00000000000E+00  0.12525980253E-10  0.17130000000E+03  0.17130000000E+03 0. -1.
       11    1    1    2    0    0  0.12507679699E-01  0.35570006150E-02  0.10333800229E+01  0.10334619621E+01  0.51109989000E-03 0.  1.
     -623    1    1    2    0    0  0.11803639935E-01  0.20522469754E-01  0.31882009929E-03  0.17130000164E+03  0.17130000000E+03 0. -1.
      622    1    1    2    0    0 -0.24311319632E-01 -0.24079470366E-01  0.29663011239E+01  0.29665364011E+01  0.15000000000E-01 0.  1.
</event>
<event>
 5   0  0.2306700E+09  0.9118800E+02  0.7818608E-02  0.1180000E+00
       11   -1    0    0    0    0  0.00000000000E+00  0.00000000000E+00  0.39999999673E+01  0.40000000000E+01  0.51109989000E-03 0. -1.
     -623   -1    0    0    0    0  0.00000000000E+00  0.00000000000E+00  0.12525980253E-10  0.17130000000E+03  0.17130000000E+03 0. -1.
       11    1    1    2    0    0  0.28331482573E-02  0.24791661454E-02  0.10766914021E+01  0.10766981051E+01  0.51109989000E-03 0. -1.
     -623    1    1    2    0    0 -0.71290301193E-03 -0.44266573041E-02  0.46630823148E-04  0.17130000006E+03  0.17130000000E+03 0. -1.
      622    1    1    2    0    0 -0.21202452429E-02  0.19474911746E-02  0.29232619487E+01  0.29233018505E+01  0.15000000000E-01 0. -1.
</event>
<event>
 5   0  0.2306700E+09  0.9118800E+02  0.7818608E-02  0.1180000E+00
       11   -1    0    0    0    0  0.00000000000E+00  0.00000000000E+00  0.39999999673E+01  0.40000000000E+01  0.51109989000E-03 0.  1.
     -623   -1    0    0    0    0  0.00000000000E+00  0.00000000000E+00  0.12525980253E-10  0.17130000000E+03  0.17130000000E+03 0.  1.
       11    1    1    2    0    0 -0.18869222073E-02 -0.39438548315E-02  0.42180194552E+00  0.42182491265E+00  0.51109989000E-03 0.  1.
     -623    1    1    2    0    0  0.29554765039E-03 -0.42651996783E-04  0.56950124724E-04  0.17130000000E+03  0.17130000000E+03 0.  1.
      622    1    1    2    0    0  0.15913745569E-02  0.39865068283E-02  0.35781410717E+01  0.35781750871E+01  0.15000000000E-01 0.  1.
</event>
<event>
 5   0  0.2306700E+09  0.9118800E+02  0.7818608E-02  0.1180000E+00
       11   -1    0    0    0    0  0.00000000000E+00  0.00000000000E+00  0.39999999673E+01  0.40000000000E+01  0.51109989000E-03 0.  1.
     -623   -1    0    0    0    0  0.00000000000E+00  0.00000000000E+00  0.12525980253E-10  0.17130000000E+03  0.17130000000E+03 0.  1.
       11    1    1    2    0    0  0.66147360760E-03 -0.15857505800E-02  0.14493381235E-01  0.14603817136E-01  0.51109989000E-03 0.  1.
     -623    1    1    2    0    0  0.63081237922E-03 -0.29838414873E-03  0.13928779020E-03  0.17130000000E+03  0.17130000000E+03 0.  1.
      622    1    1    2    0    0 -0.12922859868E-02  0.18841347287E-02  0.39853672982E+01  0.39853961812E+01  0.15000000000E-01 0.  1.
</event>
<event>
 5   0  0.2306700E+09  0.9118800E+02  0.7818608E-02  0.1180000E+00
       11   -1    0    0    0    0  0.00000000000E+00  0.00000000000E+00  0.39999999673E+01  0.40000000000E+01  0.51109989000E-03 0. -1.
     -623   -1    0    0    0    0  0.00000000000E+00  0.00000000000E+00  0.12525980253E-10  0.17130000000E+03  0.17130000000E+03 0. -1.
       11    1    1    2    0    0  0.11501800330E-02 -0.79167661316E-03  0.11947189913E+00  0.11948115152E+00  0.51109989000E-03 0. -1.
     -623    1    1    2    0    0 -0.13340171484E-03 -0.19380191218E-03  0.38469338135E-04  0.17130000000E+03  0.17130000000E+03 0. -1.
      622    1    1    2    0    0 -0.10167783182E-02  0.98547852534E-03  0.38804895989E+01  0.38805188483E+01  0.15000000000E-01 0. -1.
</event>
<event>
 5   0  0.2306700E+09  0.9118800E+02  0.7818608E-02  0.1180000E+00
       11   -1    0    0    0    0  0.00000000000E+00  0.00000000000E+00  0.39999999673E+01  0.40000000000E+01  0.51109989000E-03 0. -1.
     -623   -1    0    0    0    0  0.00000000000E+00  0.00000000000E+00  0.12525980253E-10  0.17130000000E+03  0.17130000000E+03 0. -1.
       11    1    1    2    0    0 -0.20401236246E-03 -0.17049466658E-03  0.11932087509E-01  0.11945987816E-01  0.51109989000E-03 0. -1.
     -623    1    1    2    0    0  0.53567679049E-04 -0.13410728909E-04  0.42084105270E-04  0.17130000000E+03  0.17130000000E+03 0. -1.
      622    1    1    2    0    0  0.15044468331E-03  0.18390539551E-03  0.39880258029E+01  0.39880540193E+01  0.15000000000E-01 0. -1.
</event>
<event>
 5   0  0.2306700E+09  0.9118800E+02  0.7818608E-02  0.1180000E+00
       11   -1    0    0    0    0  0.00000000000E+00  0.00000000000E+00  0.39999999673E+01  0.40000000000E+01  0.51109989000E-03 0. -1.
     -623   -1    0    0    0    0  0.00000000000E+00  0.00000000000E+00  0.12525980253E-10  0.17130000000E+03  0.17130000000E+03 0.  1.
       11    1    1    2    0    0  0.20103424475E-02 -0.30699499896E-02  0.82988680563E-01  0.83071345200E-01  0.51109989000E-03 0. -1.
     -623    1    1    2    0    0  0.14403840306E-03  0.23386525640E-02  0.11203039274E-03  0.17130000002E+03  0.17130000000E+03 0.  1.
      622    1    1    2    0    0 -0.21543808506E-02  0.73129742563E-03  0.39168992564E+01  0.39169286387E+01  0.15000000000E-01 0. -1.
</event>
<event>
 5   0  0.2306700E+09  0.9118800E+02  0.7818608E-02  0.1180000E+00
       11   -1    0    0    0    0  0.00000000000E+00  0.00000000000E+00  0.39999999673E+01  0.40000000000E+01  0.51109989000E-03 0. -1.
     -623   -1    0    0    0    0  0.00000000000E+00  0.00000000000E+00  0.12525980253E-10  0.17130000000E+03  0.17130000000E+03 0. -1.
       11    1    1    2    0    0  0.22497302061E-01 -0.16864095202E-02  0.81751774143E-01  0.84809117287E-01  0.51109989000E-03 0. -1.
     -623    1    1    2    0    0 -0.13597654822E-01 -0.34640869595E-02  0.31001504383E-02  0.17130000060E+03  0.17130000000E+03 0. -1.
      622    1    1    2    0    0 -0.88996472388E-02  0.51504964797E-02  0.39151480428E+01  0.39151902799E+01  0.15000000000E-01 0. -1.
</event>
<event>
 5   0  0.2306700E+09  0.9118800E+02  0.7818608E-02  0.1180000E+00
       11   -1    0    0    0    0  0.00000000000E+00  0.00000000000E+00  0.39999999673E+01  0.40000000000E+01  0.51109989000E-03 0. -1.
     -623   -1    0    0    0    0  0.00000000000E+00  0.00000000000E+00  0.12525980253E-10  0.17130000000E+03  0.17130000000E+03 0.  1.
       11    1    1    2    0    0 -0.19524199986E-02 -0.74772249593E-04  0.38608351619E-01  0.38661137721E-01  0.51109989000E-03 0.  1.
     -623    1    1    2    0    0 -0.19161052104E-03  0.96433933276E-04  0.81733486132E-04  0.17130000000E+03  0.17130000000E+03 0.  1.
      622    1    1    2    0    0  0.21440305196E-02 -0.21661683683E-04  0.39613098823E+01  0.39613388621E+01  0.15000000000E-01 0. -1.
</event>
<event>
 5   0  0.2306700E+09  0.9118800E+02  0.7818608E-02  0.1180000E+00
       11   -1    0    0    0    0  0.00000000000E+00  0.00000000000E+00  0.39999999673E+01  0.40000000000E+01  0.51109989000E-03 0. -1.
     -623   -1    0    0    0    0  0.00000000000E+00  0.00000000000E+00  0.12525980253E-10  0.17130000000E+03  0.17130000000E+03 0.  1.
       11    1    1    2    0    0 -0.80619556487E-02 -0.22606640921E-02  0.68273524289E+00  0.68278677407E+00  0.51109989000E-03 0. -1.
     -623    1    1    2    0    0 -0.24926509541E-04 -0.18007723186E-03  0.96168213270E-04  0.17130000000E+03  0.17130000000E+03 0.  1.
      622    1    1    2    0    0  0.80868821583E-02  0.24407413240E-02  0.33171685575E+01  0.33172132271E+01  0.15000000000E-01 0. -1.
</event>
<event>
 5   0  0.2306700E+09  0.9118800E+02  0.7818608E-02  0.1180000E+00
       11   -1    0    0    0    0  0.00000000000E+00  0.00000000000E+00  0.39999999673E+01  0.40000000000E+01  0.51109989000E-03 0.  1.
     -623   -1    0    0    0    0  0.00000000000E+00  0.00000000000E+00  0.12525980253E-10  0.17130000000E+03  0.17130000000E+03 0. -1.
       11    1    1    2    0    0 -0.25047482385E-02  0.71881689468E-03  0.62771957722E-01  0.62828101662E-01  0.51109989000E-03 0.  1.
     -623    1    1    2    0    0  0.41848883906E-02 -0.11561518968E-02  0.85123036837E-04  0.17130000006E+03  0.17130000000E+03 0. -1.
      622    1    1    2    0    0 -0.16801401521E-02  0.43733500214E-03  0.39371428866E+01  0.39371718433E+01  0.15000000000E-01 0.  1.
</event>
<event>
 5   0  0.2306700E+09  0.9118800E+02  0.7818608E-02  0.1180000E+00
       11   -1    0    0    0    0  0.00000000000E+00  0.00000000000E+00  0.39999999673E+01  0.40000000000E+01  0.51109989000E-03 0. -1.
     -623   -1    0    0    0    0  0.00000000000E+00  0.00000000000E+00  0.12525980253E-10  0.17130000000E+03  0.17130000000E+03 0. -1.
       11    1    1    2    0    0  0.44627747424E-02 -0.37561349268E-02  0.11968078736E+01  0.11968221975E+01  0.51109989000E-03 0. -1.
     -623    1    1    2    0    0 -0.14341036497E-03  0.22966538365E-03  0.59970893688E-04  0.17130000000E+03  0.17130000000E+03 0. -1.
      622    1    1    2    0    0 -0.43193643772E-02  0.35264695427E-02  0.28031321309E+01  0.28031778103E+01  0.15000000000E-01 0.  0.
</event>
<event>
 5   0  0.2306700E+09  0.9118800E+02  0.7818608E-02  0.1180000E+00
       11   -1    0    0    0    0  0.00000000000E+00  0.00000000000E+00  0.39999999673E+01  0.40000000000E+01  0.51109989000E-03 0.  1.
     -623   -1    0    0    0    0  0.00000000000E+00  0.00000000000E+00  0.12525980253E-10  0.17130000000E+03  0.17130000000E+03 0.  1.
       11    1    1    2    0    0 -0.40189945919E-02  0.24291278813E-02  0.21239952436E+00  0.21245204671E+00  0.51109989000E-03 0.  1.
     -623    1    1    2    0    0  0.28180156326E-02 -0.88367288719E-03  0.82723603803E-04  0.17130000003E+03  0.17130000000E+03 0.  1.
      622    1    1    2    0    0  0.12009789592E-02 -0.15454549942E-02  0.37875177194E+01  0.37875479278E+01  0.15000000000E-01 0.  0.
</event>
<event>
 5   0  0.2306700E+09  0.9118800E+02  0.7818608E-02  0.1180000E+00
       11   -1    0    0    0    0  0.00000000000E+00  0.00000000000E+00  0.39999999673E+01  0.40000000000E+01  0.51109989000E-03 0. -1.
     -623   -1    0    0    0    0  0.00000000000E+00  0.00000000000E+00  0.12525980253E-10  0.17130000000E+03  0.17130000000E+03 0.  1.
       11    1    1    2    0    0  0.73442315618E-02  0.20982011143E-02  0.55037320939E+00  0.55042644470E+00  0.51109989000E-03 0. -1.
     -623    1    1    2    0    0 -0.31551689497E-03  0.37149610198E-03  0.93861149373E-04  0.17130000000E+03  0.17130000000E+03 0.  1.
      622    1    1    2    0    0 -0.70287146664E-02 -0.24696972167E-02  0.34495329014E+01  0.34495735592E+01  0.15000000000E-01 0. -1.
</event>
<event>
 5   0  0.2306700E+09  0.9118800E+02  0.7818608E-02  0.1180000E+00
       11   -1    0    0    0    0  0.00000000000E+00  0.00000000000E+00  0.39999999673E+01  0.40000000000E+01  0.51109989000E-03 0. -1.
     -623   -1    0    0    0    0  0.00000000000E+00  0.00000000000E+00  0.12525980253E-10  0.17130000000E+03  0.17130000000E+03 0. -1.
       11    1    1    2    0    0 -0.48166947183E-02  0.85306768099E-03  0.21328657865E+00  0.21334327767E+00  0.51109989000E-03 0. -1.
     -623    1    1    2    0    0 -0.13446149680E-03 -0.13078556871E-03  0.89682004693E-04  0.17130000000E+03  0.17130000000E+03 0. -1.
      622    1    1    2    0    0  0.49511562151E-02 -0.72228211228E-03  0.37866237067E+01  0.37866567222E+01  0.15000000000E-01 0. -1.
</event>
<event>
 5   0  0.2306700E+09  0.9118800E+02  0.7818608E-02  0.1180000E+00
       11   -1    0    0    0    0  0.00000000000E+00  0.00000000000E+00  0.39999999673E+01  0.40000000000E+01  0.51109989000E-03 0.  1.
     -623   -1    0    0    0    0  0.00000000000E+00  0.00000000000E+00  0.12525980253E-10  0.17130000000E+03  0.17130000000E+03 0.  1.
       11    1    1    2    0    0 -0.16155033138E-03  0.81697219214E-03  0.19832440686E-01  0.19856496879E-01  0.51109989000E-03 0.  1.
     -623    1    1    2    0    0  0.26143856271E-03 -0.25055262101E-02  0.52666932415E-04  0.17130000002E+03  0.17130000000E+03 0.  1.
      622    1    1    2    0    0 -0.99888231330E-04  0.16885540179E-02  0.39801148597E+01  0.39801434846E+01  0.15000000000E-01 0.  1.
</event>
<event>
 5   0  0.2306700E+09  0.9118800E+02  0.7818608E-02  0.1180000E+00
       11   -1    0    0    0    0  0.00000000000E+00  0.00000000000E+00  0.39999999673E+01  0.40000000000E+01  0.51109989000E-03 0. -1.
     -623   -1    0    0    0    0  0.00000000000E+00  0.00000000000E+00  0.12525980253E-10  0.17130000000E+03  0.17130000000E+03 0. -1.
       11    1    1    2    0    0  0.38258796183E-02  0.76597255197E-03  0.14239601596E-01  0.14773339010E-01  0.51109989000E-03 0. -1.
     -623    1    1    2    0    0  0.66195906031E-04 -0.73497058941E-03  0.56383733705E-03  0.17130000000E+03  0.17130000000E+03 0. -1.
      622    1    1    2    0    0 -0.38920755244E-02 -0.31001962438E-04  0.39851965291E+01  0.39852266592E+01  0.15000000000E-01 0. -1.
</event>
<event>
 5   0  0.2306700E+09  0.9118800E+02  0.7818608E-02  0.1180000E+00
       11   -1    0    0    0    0  0.00000000000E+00  0.00000000000E+00  0.39999999673E+01  0.40000000000E+01  0.51109989000E-03 0. -1.
     -623   -1    0    0    0    0  0.00000000000E+00  0.00000000000E+00  0.12525980253E-10  0.17130000000E+03  0.17130000000E+03 0. -1.
       11    1    1    2    0    0 -0.38569995871E-01  0.10989693340E-01  0.63635577693E+00  0.63761850193E+00  0.51109989000E-03 0. -1.
     -623    1    1    2    0    0  0.40167831412E-02 -0.17528104616E-01  0.14810068631E-02  0.17130000095E+03  0.17130000000E+03 0. -1.
      622    1    1    2    0    0  0.34553212729E-01  0.65384112774E-02  0.33621631837E+01  0.33623805480E+01  0.15000000000E-01 0. -1.
</event>
<event>
 5   0  0.2306700E+09  0.9118800E+02  0.7818608E-02  0.1180000E+00
       11   -1    0    0    0    0  0.00000000000E+00  0.00000000000E+00  0.39999999673E+01  0.40000000000E+01  0.51109989000E-03 0. -1.
     -623   -1    0    0    0    0  0.00000000000E+00  0.00000000000E+00  0.12525980253E-10  0.17130000000E+03  0.17130000000E+03 0. -1.
       11    1    1    2    0    0 -0.39483024993E-02  0.20899936791E-01  0.57738157208E-01  0.61533344369E-01  0.51109989000E-03 0. -1.
     -623    1    1    2    0    0  0.10622229404E-01 -0.21142916917E-01  0.38310582210E-02  0.17130000168E+03  0.17130000000E+03 0. -1.
      622    1    1    2    0    0 -0.66739269043E-02  0.24298012597E-03  0.39384307519E+01  0.39384649787E+01  0.15000000000E-01 0. -1.
</event>
<event>
 5   0  0.2306700E+09  0.9118800E+02  0.7818608E-02  0.1180000E+00
       11   -1    0    0    0    0  0.00000000000E+00  0.00000000000E+00  0.39999999673E+01  0.40000000000E+01  0.51109989000E-03 0. -1.
     -623   -1    0    0    0    0  0.00000000000E+00  0.00000000000E+00  0.12525980253E-10  0.17130000000E+03  0.17130000000E+03 0. -1.
       11    1    1    2    0    0 -0.14416053695E-03 -0.51092792393E-03  0.71277132615E-01  0.71280941942E-01  0.51109989000E-03 0. -1.
     -623    1    1    2    0    0  0.41238084087E-03 -0.65875404395E-05  0.32455819519E-04  0.17130000000E+03  0.17130000000E+03 0. -1.
      622    1    1    2    0    0 -0.26822030392E-03  0.51751546437E-03  0.39286903789E+01  0.39287190576E+01  0.15000000000E-01 0. -1.
</event>
<event>
 5   0  0.2306700E+09  0.9118800E+02  0.7818608E-02  0.1180000E+00
       11   -1    0    0    0    0  0.00000000000E+00  0.00000000000E+00  0.39999999673E+01  0.40000000000E+01  0.51109989000E-03 0. -1.
     -623   -1    0    0    0    0  0.00000000000E+00  0.00000000000E+00  0.12525980253E-10  0.17130000000E+03  0.17130000000E+03 0. -1.
       11    1    1    2    0    0 -0.11691616799E-02 -0.18360542928E-02  0.38918702763E+00  0.38919345026E+00  0.51109989000E-03 0. -1.
     -623    1    1    2    0    0 -0.10807958601E-03  0.20015086108E-03  0.38143243450E-04  0.17130000000E+03  0.17130000000E+03 0. -1.
      622    1    1    2    0    0  0.12772412659E-02  0.16359034317E-02  0.36107747965E+01  0.36108065496E+01  0.15000000000E-01 0. -1.
</event>
<event>
 5   0  0.2306700E+09  0.9118800E+02  0.7818608E-02  0.1180000E+00
       11   -1    0    0    0    0  0.00000000000E+00  0.00000000000E+00  0.39999999673E+01  0.40000000000E+01  0.51109989000E-03 0.  1.
     -623   -1    0    0    0    0  0.00000000000E+00  0.00000000000E+00  0.12525980253E-10  0.17130000000E+03  0.17130000000E+03 0. -1.
       11    1    1    2    0    0 -0.98896064537E-03 -0.57803600886E-03  0.30160759764E-01  0.30186831921E-01  0.51109989000E-03 0. -1.
     -623    1    1    2    0    0  0.28140800544E-03  0.66984233358E-04  0.54474686384E-04  0.17130000000E+03  0.17130000000E+03 0. -1.
      622    1    1    2    0    0  0.70755263979E-03  0.51105177547E-03  0.39697847349E+01  0.39698131698E+01  0.15000000000E-01 0.  1.
</event>
<event>
 5   0  0.2306700E+09  0.9118800E+02  0.7818608E-02  0.1180000E+00
       11   -1    0    0    0    0  0.00000000000E+00  0.00000000000E+00  0.39999999673E+01  0.40000000000E+01  0.51109989000E-03 0.  1.
     -623   -1    0    0    0    0  0.00000000000E+00  0.00000000000E+00  0.12525980253E-10  0.17130000000E+03  0.17130000000E+03 0.  1.
       11    1    1    2    0    0  0.39700769057E-02  0.13640658447E-02  0.81337355566E-01  0.81447214930E-01  0.51109989000E-03 0.  1.
     -623    1    1    2    0    0 -0.12477673688E-02  0.36108245057E-03  0.13986677495E-03  0.17130000000E+03  0.17130000000E+03 0.  1.
      622    1    1    2    0    0 -0.27223095360E-02 -0.17251482955E-02  0.39185227479E+01  0.39185527830E+01  0.15000000000E-01 0.  1.
</event>
<event>
 5   0  0.2306700E+09  0.9118800E+02  0.7818608E-02  0.1180000E+00
       11   -1    0    0    0    0  0.00000000000E+00  0.00000000000E+00  0.39999999673E+01  0.40000000000E+01  0.51109989000E-03 0.  1.
     -623   -1    0    0    0    0  0.00000000000E+00  0.00000000000E+00  0.12525980253E-10  0.17130000000E+03  0.17130000000E+03 0.  1.
       11    1    1    2    0    0  0.29384979846E-03 -0.91697605173E-03  0.17400675739E-01  0.17434790852E-01  0.51109989000E-03 0.  1.
     -623    1    1    2    0    0 -0.25722148681E-03  0.14306625464E-03  0.62406326061E-04  0.17130000000E+03  0.17130000000E+03 0.  1.
      622    1    1    2    0    0 -0.36628311355E-04  0.77390979693E-03  0.39825368898E+01  0.39825652133E+01  0.15000000000E-01 0.  1.
</event>
<event>
 5   0  0.2306700E+09  0.9118800E+02  0.7818608E-02  0.1180000E+00
       11   -1    0    0    0    0  0.00000000000E+00  0.00000000000E+00  0.39999999673E+01  0.40000000000E+01  0.51109989000E-03 0. -1.
     -623   -1    0    0    0    0  0.00000000000E+00  0.00000000000E+00  0.12525980253E-10  0.17130000000E+03  0.17130000000E+03 0.  1.
       11    1    1    2    0    0 -0.34135069956E-02 -0.38343088781E-03  0.44292993298E+00  0.44294354697E+00  0.51109989000E-03 0. -1.
     -623    1    1    2    0    0 -0.15342324019E-02  0.88840064290E-03  0.48694884797E-04  0.17130000001E+03  0.17130000000E+03 0.  1.
      622    1    1    2    0    0  0.49477393975E-02 -0.50496975509E-03  0.35570213395E+01  0.35570564439E+01  0.15000000000E-01 0. -1.
</event>
<event>
 5   0  0.2306700E+09  0.9118800E+02  0.7818608E-02  0.1180000E+00
       11   -1    0    0    0    0  0.00000000000E+00  0.00000000000E+00  0.39999999673E+01  0.40000000000E+01  0.51109989000E-03 0. -1.
     -623   -1    0    0    0    0  0.00000000000E+00  0.00000000000E+00  0.12525980253E-10  0.17130000000E+03  0.17130000000E+03 0. -1.
       11    1    1    2    0    0 -0.90352692570E-02  0.14293995466E-01  0.40585398436E+00  0.40620644042E+00  0.51109989000E-03 0. -1.
     -623    1    1    2    0    0  0.13266637898E-02 -0.14907327962E-02  0.41481392657E-03  0.17130000001E+03  0.17130000000E+03 0. -1.
      622    1    1    2    0    0  0.77086054669E-02 -0.12803262670E-01  0.35937311696E+01  0.35937935480E+01  0.15000000000E-01 0. -1.
</event>
<event>
 5   0  0.2306700E+09  0.9118800E+02  0.7818608E-02  0.1180000E+00
       11   -1    0    0    0    0  0.00000000000E+00  0.00000000000E+00  0.39999999673E+01  0.40000000000E+01  0.51109989000E-03 0. -1.
     -623   -1    0    0    0    0  0.00000000000E+00  0.00000000000E+00  0.12525980253E-10  0.17130000000E+03  0.17130000000E+03 0. -1.
       11    1    1    2    0    0 -0.15497208212E-02  0.27358106977E-02  0.17341084850E+00  0.17344010463E+00  0.51109989000E-03 0. -1.
     -623    1    1    2    0    0  0.63885691809E-04  0.56769402249E-03  0.60338799172E-04  0.17130000000E+03  0.17130000000E+03 0. -1.
      622    1    1    2    0    0  0.14858351294E-02 -0.33035047202E-02  0.38265287801E+01  0.38265598944E+01  0.15000000000E-01 0. -1.
</event>
<event>
 5   0  0.2306700E+09  0.9118800E+02  0.7818608E-02  0.1180000E+00
       11   -1    0    0    0    0  0.00000000000E+00  0.00000000000E+00  0.39999999673E+01  0.40000000000E+01  0.51109989000E-03 0. -1.
     -623   -1    0    0    0    0  0.00000000000E+00  0.00000000000E+00  0.12525980253E-10  0.17130000000E+03  0.17130000000E+03 0. -1.
       11    1    1    2    0    0  0.66194165740E-03  0.76147841147E-04  0.58080482950E-01  0.58086553419E-01  0.51109989000E-03 0. -1.
     -623    1    1    2    0    0 -0.70331067776E-04 -0.50315130933E-04  0.34621876364E-04  0.17130000000E+03  0.17130000000E+03 0. -1.
      622    1    1    2    0    0 -0.59161058935E-03 -0.25832710018E-04  0.39418848782E+01  0.39419134622E+01  0.15000000000E-01 0. -1.
</event>
<event>
 5   0  0.2306700E+09  0.9118800E+02  0.7818608E-02  0.1180000E+00
       11   -1    0    0    0    0  0.00000000000E+00  0.00000000000E+00  0.39999999673E+01  0.40000000000E+01  0.51109989000E-03 0.  1.
     -623   -1    0    0    0    0  0.00000000000E+00  0.00000000000E+00  0.12525980253E-10  0.17130000000E+03  0.17130000000E+03 0. -1.
       11    1    1    2    0    0 -0.30986751320E-02 -0.10152340218E-02  0.79365316578E-02  0.85954780582E-02  0.51109989000E-03 0.  1.
     -623    1    1    2    0    0  0.23900853696E-02  0.84884967531E-03  0.68718594853E-03  0.17130000002E+03  0.17130000000E+03 0. -1.
      622    1    1    2    0    0  0.70858976244E-03  0.16638434650E-03  0.39913762498E+01  0.39914045018E+01  0.15000000000E-01 0.  1.
</event>
<event>
 5   0  0.2306700E+09  0.9118800E+02  0.7818608E-02  0.1180000E+00
       11   -1    0    0    0    0  0.00000000000E+00  0.00000000000E+00  0.39999999673E+01  0.40000000000E+01  0.51109989000E-03 0. -1.
     -623   -1    0    0    0    0  0.00000000000E+00  0.00000000000E+00  0.12525980253E-10  0.17130000000E+03  0.17130000000E+03 0.  1.
       11    1    1    2    0    0  0.54407824627E-02  0.48338702127E-02  0.70078640586E+00  0.70082438333E+00  0.51109989000E-03 0. -1.
     -623    1    1    2    0    0 -0.41375216234E-02 -0.21375354567E-02  0.73467007514E-04  0.17130000006E+03  0.17130000000E+03 0.  1.
      622    1    1    2    0    0 -0.13032608393E-02 -0.26963347559E-02  0.32991400945E+01  0.32991755533E+01  0.15000000000E-01 0.  1.
</event>
<event>
 5   0  0.2306700E+09  0.9118800E+02  0.7818608E-02  0.1180000E+00
       11   -1    0    0    0    0  0.00000000000E+00  0.00000000000E+00  0.39999999673E+01  0.40000000000E+01  0.51109989000E-03 0.  1.
     -623   -1    0    0    0    0  0.00000000000E+00  0.00000000000E+00  0.12525980253E-10  0.17130000000E+03  0.17130000000E+03 0.  1.
       11    1    1    2    0    0  0.22145506623E-04 -0.16132442956E-02  0.94277509489E-02  0.95784527462E-02  0.51109989000E-03 0.  1.
     -623    1    1    2    0    0  0.10343255892E-03  0.28066405128E-03  0.17908660336E-03  0.17130000000E+03  0.17130000000E+03 0.  1.
      622    1    1    2    0    0 -0.12557806555E-03  0.13325802443E-02  0.39903931298E+01  0.39904215469E+01  0.15000000000E-01 0.  1.
</event>
<event>
 5   0  0.2306700E+09  0.9118800E+02  0.7818608E-02  0.1180000E+00
       11   -1    0    0    0    0  0.00000000000E+00  0.00000000000E+00  0.39999999673E+01  0.40000000000E+01  0.51109989000E-03 0. -1.
     -623   -1    0    0    0    0  0.00000000000E+00  0.00000000000E+00  0.12525980253E-10  0.17130000000E+03  0.17130000000E+03 0. -1.
       11    1    1    2    0    0 -0.11618111664E-02  0.17772595577E-02  0.31644162677E-01  0.31719437404E-01  0.51109989000E-03 0. -1.
     -623    1    1    2    0    0  0.22018004465E-03  0.32690932314E-04  0.10411666106E-03  0.17130000000E+03  0.17130000000E+03 0. -1.
      622    1    1    2    0    0  0.94163112172E-03 -0.18099504900E-02  0.39682516880E+01  0.39682805624E+01  0.15000000000E-01 0. -1.
</event>
<event>
 5   0  0.2306700E+09  0.9118800E+02  0.7818608E-02  0.1180000E+00
       11   -1    0    0    0    0  0.00000000000E+00  0.00000000000E+00  0.39999999673E+01  0.40000000000E+01  0.51109989000E-03 0.  1.
     -623   -1    0    0    0    0  0.00000000000E+00  0.00000000000E+00  0.12525980253E-10  0.17130000000E+03  0.17130000000E+03 0.  1.
       11    1    1    2    0    0  0.20178991950E-03 -0.37654969812E-03  0.21020283235E-02  0.22050521574E-02  0.51109989000E-03 0. -1.
     -623    1    1    2    0    0  0.23024930882E-03 -0.23046267981E-03  0.13120159470E-03  0.17130000000E+03  0.17130000000E+03 0.  1.
      622    1    1    2    0    0 -0.43203922837E-03  0.60701237797E-03  0.39977667381E+01  0.39977949481E+01  0.15000000000E-01 0.  1.
</event>
<event>
 5   0  0.2306700E+09  0.9118800E+02  0.7818608E-02  0.1180000E+00
       11   -1    0    0    0    0  0.00000000000E+00  0.00000000000E+00  0.39999999673E+01  0.40000000000E+01  0.51109989000E-03 0. -1.
     -623   -1    0    0    0    0  0.00000000000E+00  0.00000000000E+00  0.12525980253E-10  0.17130000000E+03  0.17130000000E+03 0.  1.
       11    1    1    2    0    0  0.50345984140E-02  0.13722011222E-02  0.26199169779E-01  0.26718679558E-01  0.51109989000E-03 0. -1.
     -623    1    1    2    0    0 -0.15267875380E-02  0.73032926418E-03  0.54990535821E-03  0.17130000001E+03  0.17130000000E+03 0.  1.
      622    1    1    2    0    0 -0.35078108760E-02 -0.21025303864E-02  0.39732508923E+01  0.39732813112E+01  0.15000000000E-01 0. -1.
</event>
<event>
 5   0  0.2306700E+09  0.9118800E+02  0.7818608E-02  0.1180000E+00
       11   -1    0    0    0    0  0.00000000000E+00  0.00000000000E+00  0.39999999673E+01  0.40000000000E+01  0.51109989000E-03 0.  1.
     -623   -1    0    0    0    0  0.00000000000E+00  0.00000000000E+00  0.12525980253E-10  0.17130000000E+03  0.17130000000E+03 0.  1.
       11    1    1    2    0    0  0.98167632682E-03  0.69314205437E-02  0.36972392285E+00  0.36979054697E+00  0.51109989000E-03 0.  1.
     -623    1    1    2    0    0  0.29629969542E-02 -0.13678848330E-02  0.10401917080E-03  0.17130000003E+03  0.17130000000E+03 0.  1.
      622    1    1    2    0    0 -0.39446732810E-02 -0.55635357107E-02  0.36301720253E+01  0.36302094219E+01  0.15000000000E-01 0.  1.
</event>
<event>
 5   0  0.2306700E+09  0.9118800E+02  0.7818608E-02  0.1180000E+00
       11   -1    0    0    0    0  0.00000000000E+00  0.00000000000E+00  0.39999999673E+01  0.40000000000E+01  0.51109989000E-03 0. -1.
     -623   -1    0    0    0    0  0.00000000000E+00  0.00000000000E+00  0.12525980253E-10  0.17130000000E+03  0.17130000000E+03 0. -1.
       11    1    1    2    0    0  0.27776267710E-03 -0.20490151422E-02  0.10004775856E+00  0.10007042935E+00  0.51109989000E-03 0. -1.
     -623    1    1    2    0    0 -0.60834595783E-03  0.18795642605E-04  0.52028481829E-04  0.17130000000E+03  0.17130000000E+03 0. -1.
      622    1    1    2    0    0  0.33058328073E-03  0.20302194996E-02  0.38999001803E+01  0.38999295696E+01  0.15000000000E-01 0. -1.
</event>
<event>
 5   0  0.2306700E+09  0.9118800E+02  0.7818608E-02  0.1180000E+00
       11   -1    0    0    0    0  0.00000000000E+00  0.00000000000E+00  0.39999999673E+01  0.40000000000E+01  0.51109989000E-03 0.  1.
     -623   -1    0    0    0    0  0.00000000000E+00  0.00000000000E+00  0.12525980253E-10  0.17130000000E+03  0.17130000000E+03 0. -1.
       11    1    1    2    0    0 -0.44324037996E-03  0.95878441440E-03  0.19751578197E+00  0.19751926762E+00  0.51109989000E-03 0.  1.
     -623    1    1    2    0    0  0.14578624016E-03 -0.83984205200E-04  0.33151419923E-04  0.17130000000E+03  0.17130000000E+03 0. -1.
      622    1    1    2    0    0  0.29745413936E-03 -0.87480020895E-03  0.38024510459E+01  0.38024807442E+01  0.15000000000E-01 0.  1.
</event>
<event>
 5   0  0.2306700E+09  0.9118800E+02  0.7818608E-02  0.1180000E+00
       11   -1    0    0    0    0  0.00000000000E+00  0.00000000000E+00  0.39999999673E+01  0.40000000000E+01  0.51109989000E-03 0. -1.
     -623   -1    0    0    0    0  0.00000000000E+00  0.00000000000E+00  0.12525980253E-10  0.17130000000E+03  0.17130000000E+03 0. -1.
       11    1    1    2    0    0  0.14692287636E-02  0.20363136238E-02  0.49882859071E-01  0.49948634201E-01  0.51109989000E-03 0. -1.
     -623    1    1    2    0    0 -0.15276873213E-02  0.17303829268E-02  0.96035185842E-04  0.17130000002E+03  0.17130000000E+03 0. -1.
      622    1    1    2    0    0  0.58458557938E-04 -0.37666965509E-02  0.39500210739E+01  0.39500513510E+01  0.15000000000E-01 0. -1.
</event>
<event>
 5   0  0.2306700E+09  0.9118800E+02  0.7818608E-02  0.1180000E+00
       11   -1    0    0    0    0  0.00000000000E+00  0.00000000000E+00  0.39999999673E+01  0.40000000000E+01  0.51109989000E-03 0.  1.
     -623   -1    0    0    0    0  0.00000000000E+00  0.00000000000E+00  0.12525980253E-10  0.17130000000E+03  0.17130000000E+03 0.  1.
       11    1    1    2    0    0  0.76546424017E-02  0.26677474278E-02  0.58699598317E-01  0.59258876907E-01  0.51109989000E-03 0.  1.
     -623    1    1    2    0    0 -0.90606129020E-02 -0.56240101938E-04  0.58915076357E-03  0.17130000024E+03  0.17130000000E+03 0.  1.
      622    1    1    2    0    0  0.14059705020E-02 -0.26115073259E-02  0.39407112190E+01  0.39407408832E+01  0.15000000000E-01 0.  1.
</event>
<event>
 5   0  0.2306700E+09  0.9118800E+02  0.7818608E-02  0.1180000E+00
       11   -1    0    0    0    0  0.00000000000E+00  0.00000000000E+00  0.39999999673E+01  0.40000000000E+01  0.51109989000E-03 0.  1.
     -623   -1    0    0    0    0  0.00000000000E+00  0.00000000000E+00  0.12525980253E-10  0.17130000000E+03  0.17130000000E+03 0.  1.
       11    1    1    2    0    0 -0.31972044294E-01 -0.41413771241E-03  0.57734636388E+00  0.57823132761E+00  0.51109989000E-03 0.  1.
     -623    1    1    2    0    0 -0.10258396086E-01 -0.52847991949E-02  0.11835581086E-02  0.17130000039E+03  0.17130000000E+03 0.  1.
      622    1    1    2    0    0  0.42230440380E-01  0.56989369071E-02  0.34214700452E+01  0.34217682794E+01  0.15000000000E-01 0.  1.
</event>
<event>
 5   0  0.2306700E+09  0.9118800E+02  0.7818608E-02  0.1180000E+00
       11   -1    0    0    0    0  0.00000000000E+00  0.00000000000E+00  0.39999999673E+01  0.40000000000E+01  0.51109989000E-03 0. -1.
     -623   -1    0    0    0    0  0.00000000000E+00  0.00000000000E+00  0.12525980253E-10  0.17130000000E+03  0.17130000000E+03 0. -1.
       11    1    1    2    0    0 -0.82360128961E-03 -0.37950936139E-02  0.30803728283E-01  0.31051762477E-01  0.51109989000E-03 0. -1.
     -623    1    1    2    0    0 -0.72577891320E-03  0.11550609146E-02  0.27753281853E-03  0.17130000001E+03  0.17130000000E+03 0. -1.
      622    1    1    2    0    0  0.15493802028E-02  0.26400326993E-02  0.39689187063E+01  0.39689482319E+01  0.15000000000E-01 0. -1.
</event>
<event>
 5   0  0.2306700E+09  0.9118800E+02  0.7818608E-02  0.1180000E+00
       11   -1    0    0    0    0  0.00000000000E+00  0.00000000000E+00  0.39999999673E+01  0.40000000000E+01  0.51109989000E-03 0.  1.
     -623   -1    0    0    0    0  0.00000000000E+00  0.00000000000E+00  0.12525980253E-10  0.17130000000E+03  0.17130000000E+03 0. -1.
       11    1    1    2    0    0 -0.25775463966E-02 -0.27455694241E-02  0.21229389667E+00  0.21232791075E+00  0.51109989000E-03 0.  1.
     -623    1    1    2    0    0  0.21245126292E-03  0.43835233229E-03  0.65125006197E-04  0.17130000000E+03  0.17130000000E+03 0. -1.
      622    1    1    2    0    0  0.23650951337E-02  0.23072170918E-02  0.37876409451E+01  0.37876720879E+01  0.15000000000E-01 0.  0.
</event>
<event>
 5   0  0.2306700E+09  0.9118800E+02  0.7818608E-02  0.1180000E+00
       11   -1    0    0    0    0  0.00000000000E+00  0.00000000000E+00  0.39999999673E+01  0.40000000000E+01  0.51109989000E-03 0. -1.
     -623   -1    0    0    0    0  0.00000000000E+00  0.00000000000E+00  0.12525980253E-10  0.17130000000E+03  0.17130000000E+03 0.  1.
       11    1    1    2    0    0  0.46367496858E-03  0.43381410505E-02  0.40413615011E+00  0.40416002216E+00  0.51109989000E-03 0. -1.
     -623    1    1    2    0    0  0.12113629532E-03 -0.14776598674E-03  0.57614996992E-04  0.17130000000E+03  0.17130000000E+03 0.  1.
      622    1    1    2    0    0 -0.58481126389E-03 -0.41903750638E-02  0.35958062018E+01  0.35958399773E+01  0.15000000000E-01 0. -1.
</event>
<event>
 5   0  0.2306700E+09  0.9118800E+02  0.7818608E-02  0.1180000E+00
       11   -1    0    0    0    0  0.00000000000E+00  0.00000000000E+00  0.39999999673E+01  0.40000000000E+01  0.51109989000E-03 0. -1.
     -623   -1    0    0    0    0  0.00000000000E+00  0.00000000000E+00  0.12525980253E-10  0.17130000000E+03  0.17130000000E+03 0.  1.
       11    1    1    2    0    0  0.47972393345E-03 -0.69768141759E-03  0.89229434189E-01  0.89234914933E-01  0.51109989000E-03 0. -1.
     -623    1    1    2    0    0 -0.41684454610E-04  0.18987736504E-04  0.34298393939E-04  0.17130000000E+03  0.17130000000E+03 0.  1.
      622    1    1    2    0    0 -0.43803947875E-03  0.67869368105E-03  0.39107362437E+01  0.39107650939E+01  0.15000000000E-01 0. -1.
</event>
<event>
 5   0  0.2306700E+09  0.9118800E+02  0.7818608E-02  0.1180000E+00
       11   -1    0    0    0    0  0.00000000000E+00  0.00000000000E+00  0.39999999673E+01  0.40000000000E+01  0.51109989000E-03 0. -1.
     -623   -1    0    0    0    0  0.00000000000E+00  0.00000000000E+00  0.12525980253E-10  0.17130000000E+03  0.17130000000E+03 0.  1.
       11    1    1    2    0    0  0.10634664349E-01  0.44949146880E-02  0.96178644661E+00  0.96185587821E+00  0.51109989000E-03 0. -1.
     -623    1    1    2    0    0 -0.12802009602E-02 -0.15678178438E-02  0.12225188545E-03  0.17130000001E+03  0.17130000000E+03 0.  1.
      622    1    1    2    0    0 -0.93544633883E-02 -0.29270968435E-02  0.30380912707E+01  0.30381441116E+01  0.15000000000E-01 0. -1.
</event>
<event>
 5   0  0.2306700E+09  0.9118800E+02  0.7818608E-02  0.1180000E+00
       11   -1    0    0    0    0  0.00000000000E+00  0.00000000000E+00  0.39999999673E+01  0.40000000000E+01  0.51109989000E-03 0. -1.
     -623   -1    0    0    0    0  0.00000000000E+00  0.00000000000E+00  0.12525980253E-10  0.17130000000E+03  0.17130000000E+03 0. -1.
       11    1    1    2    0    0  0.21936313588E-03 -0.80688943678E-03  0.38241666536E-01  0.38254221640E-01  0.51109989000E-03 0. -1.
     -623    1    1    2    0    0  0.11299172356E-02  0.43591190202E-03  0.41170562131E-04  0.17130000000E+03  0.17130000000E+03 0. -1.
      622    1    1    2    0    0 -0.13492803727E-02  0.37097753428E-03  0.39617171347E+01  0.39617457785E+01  0.15000000000E-01 0.  0.
</event>
<event>
 5   0  0.2306700E+09  0.9118800E+02  0.7818608E-02  0.1180000E+00
       11   -1    0    0    0    0  0.00000000000E+00  0.00000000000E+00  0.39999999673E+01  0.40000000000E+01  0.51109989000E-03 0.  1.
     -623   -1    0    0    0    0  0.00000000000E+00  0.00000000000E+00  0.12525980253E-10  0.17130000000E+03  0.17130000000E+03 0.  1.
       11    1    1    2    0    0 -0.19230454240E-03 -0.14662610624E-02  0.34158916470E-01  0.34194732051E-01  0.51109989000E-03 0.  1.
     -623    1    1    2    0    0 -0.24090671666E-02 -0.16110885553E-02  0.66222243725E-04  0.17130000002E+03  0.17130000000E+03 0.  1.
      622    1    1    2    0    0  0.26013717115E-02  0.30773496193E-02  0.39657748328E+01  0.39658052476E+01  0.15000000000E-01 0.  1.
</event>
<event>
 5   0  0.2306700E+09  0.9118800E+02  0.7818608E-02  0.1180000E+00
       11   -1    0    0    0    0  0.00000000000E+00  0.00000000000E+00  0.39999999673E+01  0.40000000000E+01  0.51109989000E-03 0. -1.
     -623   -1    0    0    0    0  0.00000000000E+00  0.00000000000E+00  0.12525980253E-10  0.17130000000E+03  0.17130000000E+03 0.  1.
       11    1    1    2    0    0 -0.28895090329E-02 -0.16696738979E-02  0.60817138681E+00  0.60818075770E+00  0.51109989000E-03 0. -1.
     -623    1    1    2    0    0  0.16143369744E-02  0.95675809397E-03  0.42831362154E-04  0.17130000001E+03  0.17130000000E+03 0.  1.
      622    1    1    2    0    0  0.12751720568E-02  0.71291580298E-03  0.33917857534E+01  0.33918192362E+01  0.15000000000E-01 0. -1.
</event>
<event>
 5   0  0.2306700E+09  0.9118800E+02  0.7818608E-02  0.1180000E+00
       11   -1    0    0    0    0  0.00000000000E+00  0.00000000000E+00  0.39999999673E+01  0.40000000000E+01  0.51109989000E-03 0. -1.
     -623   -1    0    0    0    0  0.00000000000E+00  0.00000000000E+00  0.12525980253E-10  0.17130000000E+03  0.17130000000E+03 0.  1.
       11    1    1    2    0    0  0.10535206741E-01  0.26713204335E-01  0.78472285073E+00  0.78524824072E+00  0.51109989000E-03 0. -1.
     -623    1    1    2    0    0 -0.20377955768E-02 -0.19105650495E-02  0.66728927617E-03  0.17130000002E+03  0.17130000000E+03 0.  1.
      622    1    1    2    0    0 -0.84974111638E-02 -0.24802639286E-01  0.32146098274E+01  0.32147517352E+01  0.15000000000E-01 0. -1.
</event>
<event>
 5   0  0.2306700E+09  0.9118800E+02  0.7818608E-02  0.1180000E+00
       11   -1    0    0    0    0  0.00000000000E+00  0.00000000000E+00  0.39999999673E+01  0.40000000000E+01  0.51109989000E-03 0.  1.
     -623   -1    0    0    0    0  0.00000000000E+00  0.00000000000E+00  0.12525980253E-10  0.17130000000E+03  0.17130000000E+03 0. -1.
       11    1    1    2    0    0 -0.52755454510E-02 -0.31324429146E-02  0.37953164394E+00  0.37958157695E+00  0.51109989000E-03 0.  1.
     -623    1    1    2    0    0  0.65566221141E-02 -0.25692219793E-03  0.82913141106E-04  0.17130000013E+03  0.17130000000E+03 0. -1.
      622    1    1    2    0    0 -0.12810766631E-02  0.33893651125E-02  0.36203854103E+01  0.36204182974E+01  0.15000000000E-01 0.  1.
</event>
<event>
 5   0  0.2306700E+09  0.9118800E+02  0.7818608E-02  0.1180000E+00
       11   -1    0    0    0    0  0.00000000000E+00  0.00000000000E+00  0.39999999673E+01  0.40000000000E+01  0.51109989000E-03 0.  1.
     -623   -1    0    0    0    0  0.00000000000E+00  0.00000000000E+00  0.12525980253E-10  0.17130000000E+03  0.17130000000E+03 0.  1.
       11    1    1    2    0    0 -0.59763394611E-03 -0.18133623319E-02  0.96830432839E+00  0.96830634566E+00  0.51109989000E-03 0.  1.
     -623    1    1    2    0    0 -0.37960772399E-04 -0.68625587103E-04  0.39743628980E-04  0.17130000000E+03  0.17130000000E+03 0.  1.
      622    1    1    2    0    0  0.63559471850E-03  0.18819879190E-02  0.30316558953E+01  0.30316936543E+01  0.15000000000E-01 0.  1.
</event>
<event>
 5   0  0.2306700E+09  0.9118800E+02  0.7818608E-02  0.1180000E+00
       11   -1    0    0    0    0  0.00000000000E+00  0.00000000000E+00  0.39999999673E+01  0.40000000000E+01  0.51109989000E-03 0. -1.
     -623   -1    0    0    0    0  0.00000000000E+00  0.00000000000E+00  0.12525980253E-10  0.17130000000E+03  0.17130000000E+03 0. -1.
       11    1    1    2    0    0  0.15736492317E-03  0.21463323733E-03  0.10675325531E-01  0.10690866636E-01  0.51109989000E-03 0. -1.
     -623    1    1    2    0    0  0.34893280645E-04 -0.13163604044E-03  0.43714492318E-04  0.17130000000E+03  0.17130000000E+03 0. -1.
      622    1    1    2    0    0 -0.19225820386E-03 -0.82997196719E-04  0.39892809327E+01  0.39893091387E+01  0.15000000000E-01 0. -1.
</event>
<event>
 5   0  0.2306700E+09  0.9118800E+02  0.7818608E-02  0.1180000E+00
       11   -1    0    0    0    0  0.00000000000E+00  0.00000000000E+00  0.39999999673E+01  0.40000000000E+01  0.51109989000E-03 0.  1.
     -623   -1    0    0    0    0  0.00000000000E+00  0.00000000000E+00  0.12525980253E-10  0.17130000000E+03  0.17130000000E+03 0.  1.
       11    1    1    2    0    0  0.70403832876E-03  0.16697089079E-02  0.20786434422E+00  0.20787287081E+00  0.51109989000E-03 0.  1.
     -623    1    1    2    0    0 -0.13506344076E-03 -0.30494569002E-03  0.38449394247E-04  0.17130000000E+03  0.17130000000E+03 0.  1.
      622    1    1    2    0    0 -0.56897488817E-03 -0.13647632183E-02  0.37920971686E+01  0.37921271237E+01  0.15000000000E-01 0.  1.
</event>
<event>
 5   0  0.2306700E+09  0.9118800E+02  0.7818608E-02  0.1180000E+00
       11   -1    0    0    0    0  0.00000000000E+00  0.00000000000E+00  0.39999999673E+01  0.40000000000E+01  0.51109989000E-03 0. -1.
     -623   -1    0    0    0    0  0.00000000000E+00  0.00000000000E+00  0.12525980253E-10  0.17130000000E+03  0.17130000000E+03 0. -1.
       11    1    1    2    0    0 -0.60740266134E-02 -0.78662037884E-03  0.83442144446E-01  0.83668185493E-01  0.51109989000E-03 0. -1.
     -623    1    1    2    0    0 -0.86835133029E-03 -0.21158153288E-02  0.26197869883E-03  0.17130000002E+03  0.17130000000E+03 0. -1.
      622    1    1    2    0    0  0.69423779437E-02  0.29024357078E-02  0.39162958446E+01  0.39163317994E+01  0.15000000000E-01 0. -1.
</event>
<event>
 5   0  0.2306700E+09  0.9118800E+02  0.7818608E-02  0.1180000E+00
       11   -1    0    0    0    0  0.00000000000E+00  0.00000000000E+00  0.39999999673E+01  0.40000000000E+01  0.51109989000E-03 0.  1.
     -623   -1    0    0    0    0  0.00000000000E+00  0.00000000000E+00  0.12525980253E-10  0.17130000000E+03  0.17130000000E+03 0. -1.
       11    1    1    2    0    0 -0.10817602129E-02 -0.18275412270E-03  0.70094807195E-01  0.70105255310E-01  0.51109989000E-03 0.  1.
     -623    1    1    2    0    0  0.37367773006E-04  0.80649821863E-04  0.39182431450E-04  0.17130000000E+03  0.17130000000E+03 0. -1.
      622    1    1    2    0    0  0.10443924399E-02  0.10210430083E-03  0.39298659777E+01  0.39298947447E+01  0.15000000000E-01 0.  1.
</event>
<event>
 5   0  0.2306700E+09  0.9118800E+02  0.7818608E-02  0.1180000E+00
       11   -1    0    0    0    0  0.00000000000E+00  0.00000000000E+00  0.39999999673E+01  0.40000000000E+01  0.51109989000E-03 0. -1.
     -623   -1    0    0    0    0  0.00000000000E+00  0.00000000000E+00  0.12525980253E-10  0.17130000000E+03  0.17130000000E+03 0.  1.
       11    1    1    2    0    0  0.83716375268E-02  0.54367132317E-02  0.27743270661E+00  0.27761269799E+00  0.51109989000E-03 0. -1.
     -623    1    1    2    0    0 -0.10291021493E-03  0.84632630429E-04  0.22346045715E-03  0.17130000000E+03  0.17130000000E+03 0.  1.
      622    1    1    2    0    0 -0.82687273119E-02 -0.55213458622E-02  0.37223438008E+01  0.37223873023E+01  0.15000000000E-01 0. -1.
</event>
<event>
 5   0  0.2306700E+09  0.9118800E+02  0.7818608E-02  0.1180000E+00
       11   -1    0    0    0    0  0.00000000000E+00  0.00000000000E+00  0.39999999673E+01  0.40000000000E+01  0.51109989000E-03 0.  1.
     -623   -1    0    0    0    0  0.00000000000E+00  0.00000000000E+00  0.12525980253E-10  0.17130000000E+03  0.17130000000E+03 0.  1.
       11    1    1    2    0    0 -0.97248426714E-03 -0.91904924089E-03  0.15547534078E-01  0.15613372953E-01  0.51109989000E-03 0.  1.
     -623    1    1    2    0    0  0.29049192388E-03 -0.62738069105E-05  0.94207633951E-04  0.17130000000E+03  0.17130000000E+03 0.  1.
      622    1    1    2    0    0  0.68199234326E-03  0.92532304780E-03  0.39843582256E+01  0.39843866268E+01  0.15000000000E-01 0.  1.
</event>
<event>
 5   0  0.2306700E+09  0.9118800E+02  0.7818608E-02  0.1180000E+00
       11   -1    0    0    0    0  0.00000000000E+00  0.00000000000E+00  0.39999999673E+01  0.40000000000E+01  0.51109989000E-03 0. -1.
     -623   -1    0    0    0    0  0.00000000000E+00  0.00000000000E+00  0.12525980253E-10  0.17130000000E+03  0.17130000000E+03 0. -1.
       11    1    1    2    0    0  0.22172046275E-02 -0.29508828205E-02  0.16382066816E+00  0.16386304112E+00  0.51109989000E-03 0. -1.
     -623    1    1    2    0    0  0.16921722888E-03 -0.74372801330E-04  0.73602110316E-04  0.17130000000E+03  0.17130000000E+03 0. -1.
      622    1    1    2    0    0 -0.23864218564E-02  0.30252556218E-02  0.38361056971E+01  0.38361369588E+01  0.15000000000E-01 0. -1.
</event>
<event>
 5   0  0.2306700E+09  0.9118800E+02  0.7818608E-02  0.1180000E+00
       11   -1    0    0    0    0  0.00000000000E+00  0.00000000000E+00  0.39999999673E+01  0.40000000000E+01  0.51109989000E-03 0.  1.
     -623   -1    0    0    0    0  0.00000000000E+00  0.00000000000E+00  0.12525980253E-10  0.17130000000E+03  0.17130000000E+03 0. -1.
       11    1    1    2    0    0 -0.86793396468E-03 -0.25322715523E-03  0.16124997656E-01  0.16158409757E-01  0.51109989000E-03 0.  1.
     -623    1    1    2    0    0  0.76816965957E-04 -0.64406344232E-03  0.61799475646E-04  0.17130000000E+03  0.17130000000E+03 0. -1.
      622    1    1    2    0    0  0.79111699863E-03  0.89729059834E-03  0.39838131751E+01  0.39838415939E+01  0.15000000000E-01 0.  1.
</event>
<event>
 5   0  0.2306700E+09  0.9118800E+02  0.7818608E-02  0.1180000E+00
       11   -1    0    0    0    0  0.00000000000E+00  0.00000000000E+00  0.39999999673E+01  0.40000000000E+01  0.51109989000E-03 0.  1.
     -623   -1    0    0    0    0  0.00000000000E+00  0.00000000000E+00  0.12525980253E-10  0.17130000000E+03  0.17130000000E+03 0.  1.
       11    1    1    2    0    0  0.34787004629E-03  0.45510884531E-02  0.65131358888E+00  0.65132978260E+00  0.51109989000E-03 0.  1.
     -623    1    1    2    0    0  0.30335809836E-03 -0.22126900434E-03  0.52619668144E-04  0.17130000000E+03  0.17130000000E+03 0.  1.
      622    1    1    2    0    0 -0.65122814491E-03 -0.43298194485E-02  0.33486337623E+01  0.33486702204E+01  0.15000000000E-01 0.  1.
</event>
<event>
 5   0  0.2306700E+09  0.9118800E+02  0.7818608E-02  0.1180000E+00
       11   -1    0    0    0    0  0.00000000000E+00  0.00000000000E+00  0.39999999673E+01  0.40000000000E+01  0.51109989000E-03 0.  1.
     -623   -1    0    0    0    0  0.00000000000E+00  0.00000000000E+00  0.12525980253E-10  0.17130000000E+03  0.17130000000E+03 0.  1.
       11    1    1    2    0    0  0.19928369307E-02 -0.39330299105E-03  0.17967492543E-01  0.18089170671E-01  0.51109989000E-03 0.  1.
     -623    1    1    2    0    0 -0.29798273730E-02  0.34229839261E-03  0.15004732994E-03  0.17130000003E+03  0.17130000000E+03 0.  1.
      622    1    1    2    0    0  0.98699044231E-03  0.51004598431E-04  0.39818824275E+01  0.39819108030E+01  0.15000000000E-01 0.  1.
</event>
<event>
 5   0  0.2306700E+09  0.9118800E+02  0.7818608E-02  0.1180000E+00
       11   -1    0    0    0    0  0.00000000000E+00  0.00000000000E+00  0.39999999673E+01  0.40000000000E+01  0.51109989000E-03 0.  1.
     -623   -1    0    0    0    0  0.00000000000E+00  0.00000000000E+00  0.12525980253E-10  0.17130000000E+03  0.17130000000E+03 0.  1.
       11    1    1    2    0    0  0.84859520466E-03  0.11045624190E-03  0.20530312371E+00  0.20530554338E+00  0.51109989000E-03 0.  1.
     -623    1    1    2    0    0 -0.11616561801E-04 -0.93365496357E-04  0.32126173630E-04  0.17130000000E+03  0.17130000000E+03 0.  1.
      622    1    1    2    0    0 -0.83697864282E-03 -0.17090745274E-04  0.37946647291E+01  0.37946944682E+01  0.15000000000E-01 0.  1.
</event>
<event>
 5   0  0.2306700E+09  0.9118800E+02  0.7818608E-02  0.1180000E+00
       11   -1    0    0    0    0  0.00000000000E+00  0.00000000000E+00  0.39999999673E+01  0.40000000000E+01  0.51109989000E-03 0. -1.
     -623   -1    0    0    0    0  0.00000000000E+00  0.00000000000E+00  0.12525980253E-10  0.17130000000E+03  0.17130000000E+03 0. -1.
       11    1    1    2    0    0  0.28544996964E-02 -0.15131831906E-02  0.26954210484E+00  0.26956195095E+00  0.51109989000E-03 0. -1.
     -623    1    1    2    0    0 -0.28519971673E-04 -0.82801212260E-04  0.51382751632E-04  0.17130000000E+03  0.17130000000E+03 0. -1.
      622    1    1    2    0    0 -0.28259797246E-02  0.15959844031E-02  0.37304064922E+01  0.37304380614E+01  0.15000000000E-01 0. -1.
</event>
<event>
 5   0  0.2306700E+09  0.9118800E+02  0.7818608E-02  0.1180000E+00
       11   -1    0    0    0    0  0.00000000000E+00  0.00000000000E+00  0.39999999673E+01  0.40000000000E+01  0.51109989000E-03 0. -1.
     -623   -1    0    0    0    0  0.00000000000E+00  0.00000000000E+00  0.12525980253E-10  0.17130000000E+03  0.17130000000E+03 0.  1.
       11    1    1    2    0    0  0.19321505989E-02  0.67976014123E-03  0.86990652321E+00  0.86990908469E+00  0.51109989000E-03 0. -1.
     -623    1    1    2    0    0 -0.47827227727E-03 -0.19315066952E-03  0.38846755855E-04  0.17130000000E+03  0.17130000000E+03 0.  1.
      622    1    1    2    0    0 -0.14538783216E-02 -0.48660947171E-03  0.31300545974E+01  0.31300909145E+01  0.15000000000E-01 0.  0.
</event>
<event>
 5   0  0.2306700E+09  0.9118800E+02  0.7818608E-02  0.1180000E+00
       11   -1    0    0    0    0  0.00000000000E+00  0.00000000000E+00  0.39999999673E+01  0.40000000000E+01  0.51109989000E-03 0. -1.
     -623   -1    0    0    0    0  0.00000000000E+00  0.00000000000E+00  0.12525980253E-10  0.17130000000E+03  0.17130000000E+03 0. -1.
       11    1    1    2    0    0 -0.24331819612E-03  0.20234767866E-02  0.16695235585E+00  0.16696557731E+00  0.51109989000E-03 0. -1.
     -623    1    1    2    0    0  0.52404785772E-03  0.40941623410E-03  0.43322736650E-04  0.17130000000E+03  0.17130000000E+03 0. -1.
      622    1    1    2    0    0 -0.28072966305E-03 -0.24328930219E-02  0.38330042998E+01  0.38330344324E+01  0.15000000000E-01 0. -1.
</event>
<event>
 5   0  0.2306700E+09  0.9118800E+02  0.7818608E-02  0.1180000E+00
       11   -1    0    0    0    0  0.00000000000E+00  0.00000000000E+00  0.39999999673E+01  0.40000000000E+01  0.51109989000E-03 0.  1.
     -623   -1    0    0    0    0  0.00000000000E+00  0.00000000000E+00  0.12525980253E-10  0.17130000000E+03  0.17130000000E+03 0. -1.
       11    1    1    2    0    0  0.21808534945E-02  0.20200266443E-01  0.17193786909E+00  0.17313491541E+00  0.51109989000E-03 0.  1.
     -623    1    1    2    0    0 -0.60383762563E-02 -0.24657311279E-02  0.12695777602E-02  0.17130000013E+03  0.17130000000E+03 0. -1.
      622    1    1    2    0    0  0.38575227619E-02 -0.17734535315E-01  0.38267925205E+01  0.38268649557E+01  0.15000000000E-01 0.  1.
</event>
<event>
 5   0  0.2306700E+09  0.9118800E+02  0.7818608E-02  0.1180000E+00
       11   -1    0    0    0    0  0.00000000000E+00  0.00000000000E+00  0.39999999673E+01  0.40000000000E+01  0.51109989000E-03 0. -1.
     -623   -1    0    0    0    0  0.00000000000E+00  0.00000000000E+00  0.12525980253E-10  0.17130000000E+03  0.17130000000E+03 0. -1.
       11    1    1    2    0    0  0.36539892517E-02  0.15821679623E-02  0.56828229232E+00  0.56829647182E+00  0.51109989000E-03 0. -1.
     -623    1    1    2    0    0 -0.74751357669E-04 -0.38982470061E-04  0.49143144915E-04  0.17130000000E+03  0.17130000000E+03 0. -1.
      622    1    1    2    0    0 -0.35792378941E-02 -0.15431854923E-02  0.34316685319E+01  0.34317035282E+01  0.15000000000E-01 0.  0.
</event>
<event>
 5   0  0.2306700E+09  0.9118800E+02  0.7818608E-02  0.1180000E+00
       11   -1    0    0    0    0  0.00000000000E+00  0.00000000000E+00  0.39999999673E+01  0.40000000000E+01  0.51109989000E-03 0. -1.
     -623   -1    0    0    0    0  0.00000000000E+00  0.00000000000E+00  0.12525980253E-10  0.17130000000E+03  0.17130000000E+03 0. -1.
       11    1    1    2    0    0  0.17029193017E-02 -0.24611672123E-03  0.47489480983E-01  0.47523389321E-01  0.51109989000E-03 0. -1.
     -623    1    1    2    0    0 -0.14157410913E-02 -0.12216667532E-02  0.62632157079E-04  0.17130000001E+03  0.17130000000E+03 0. -1.
      622    1    1    2    0    0 -0.28717821034E-03  0.14677834744E-02  0.39524478542E+01  0.39524766005E+01  0.15000000000E-01 0. -1.
</event>
<event>
 5   0  0.2306700E+09  0.9118800E+02  0.7818608E-02  0.1180000E+00
       11   -1    0    0    0    0  0.00000000000E+00  0.00000000000E+00  0.39999999673E+01  0.40000000000E+01  0.51109989000E-03 0. -1.
     -623   -1    0    0    0    0  0.00000000000E+00  0.00000000000E+00  0.12525980253E-10  0.17130000000E+03  0.17130000000E+03 0. -1.
       11    1    1    2    0    0  0.67654264890E-03  0.75839853053E-03  0.50260977881E+00  0.50261106619E+00  0.51109989000E-03 0. -1.
     -623    1    1    2    0    0 -0.15900013845E-03  0.14291480169E-03  0.33576311816E-04  0.17130000000E+03  0.17130000000E+03 0. -1.
      622    1    1    2    0    0 -0.51754250978E-03 -0.90131333283E-03  0.34973566291E+01  0.34973889505E+01  0.15000000000E-01 0. -1.
</event>
<event>
 5   0  0.2306700E+09  0.9118800E+02  0.7818608E-02  0.1180000E+00
       11   -1    0    0    0    0  0.00000000000E+00  0.00000000000E+00  0.39999999673E+01  0.40000000000E+01  0.51109989000E-03 0.  1.
     -623   -1    0    0    0    0  0.00000000000E+00  0.00000000000E+00  0.12525980253E-10  0.17130000000E+03  0.17130000000E+03 0. -1.
       11    1    1    2    0    0 -0.28507082579E-03 -0.51142309964E-02  0.34382535354E+00  0.34386388526E+00  0.51109989000E-03 0.  1.
     -623    1    1    2    0    0  0.35078416236E-03 -0.58409374900E-03  0.73712001027E-04  0.17130000000E+03  0.17130000000E+03 0. -1.
      622    1    1    2    0    0 -0.65713336551E-04  0.56983247454E-02  0.36561009016E+01  0.36561361132E+01  0.15000000000E-01 0.  1.
</event>
<event>
 5   0  0.2306700E+09  0.9118800E+02  0.7818608E-02  0.1180000E+00
       11   -1    0    0    0    0  0.00000000000E+00  0.00000000000E+00  0.39999999673E+01  0.40000000000E+01  0.51109989000E-03 0.  1.
     -623   -1    0    0    0    0  0.00000000000E+00  0.00000000000E+00  0.12525980253E-10  0.17130000000E+03  0.17130000000E+03 0.  1.
       11    1    1    2    0    0  0.32246311841E-02 -0.39242053432E-02  0.32462696334E+00  0.32466709748E+00  0.51109989000E-03 0.  1.
     -623    1    1    2    0    0 -0.52902026960E-04 -0.44872397479E-03  0.74681773722E-04  0.17130000000E+03  0.17130000000E+03 0.  1.
      622    1    1    2    0    0 -0.31717291571E-02  0.43729293180E-02  0.36752983222E+01  0.36753329019E+01  0.15000000000E-01 0.  1.
</event>
<event>
 5   0  0.2306700E+09  0.9118800E+02  0.7818608E-02  0.1180000E+00
       11   -1    0    0    0    0  0.00000000000E+00  0.00000000000E+00  0.39999999673E+01  0.40000000000E+01  0.51109989000E-03 0.  1.
     -623   -1    0    0    0    0  0.00000000000E+00  0.00000000000E+00  0.12525980253E-10  0.17130000000E+03  0.17130000000E+03 0.  1.
       11    1    1    2    0    0 -0.13755504004E-02 -0.71234590122E-04  0.67786920963E-01  0.67802839830E-01  0.51109989000E-03 0.  1.
     -623    1    1    2    0    0 -0.37707340068E-04  0.49987366093E-04  0.44750333470E-04  0.17130000000E+03  0.17130000000E+03 0.  1.
      622    1    1    2    0    0  0.14132577404E-02  0.21247224029E-04  0.39321682961E+01  0.39321971602E+01  0.15000000000E-01 0.  1.
</event>
<event>
 5   0  0.2306700E+09  0.9118800E+02  0.7818608E-02  0.1180000E+00
       11   -1    0    0    0    0  0.00000000000E+00  0.00000000000E+00  0.39999999673E+01  0.40000000000E+01  0.51109989000E-03 0.  1.
     -623   -1    0    0    0    0  0.00000000000E+00  0.00000000000E+00  0.12525980253E-10  0.17130000000E+03  0.17130000000E+03 0.  1.
       11    1    1    2    0    0 -0.15972819457E-02 -0.11199474893E-02  0.10917262013E+00  0.10919124416E+00  0.51109989000E-03 0.  1.
     -623    1    1    2    0    0  0.11426441182E-02  0.16498735172E-02  0.47580207275E-04  0.17130000001E+03  0.17130000000E+03 0.  1.
      622    1    1    2    0    0  0.45463782625E-03 -0.52992602969E-03  0.38907797716E+01  0.38908087486E+01  0.15000000000E-01 0.  1.
</event>
<event>
 5   0  0.2306700E+09  0.9118800E+02  0.7818608E-02  0.1180000E+00
       11   -1    0    0    0    0  0.00000000000E+00  0.00000000000E+00  0.39999999673E+01  0.40000000000E+01  0.51109989000E-03 0. -1.
     -623   -1    0    0    0    0  0.00000000000E+00  0.00000000000E+00  0.12525980253E-10  0.17130000000E+03  0.17130000000E+03 0. -1.
       11    1    1    2    0    0 -0.14052973302E-03 -0.23315450730E-03  0.91689585910E-02  0.91872266964E-02  0.51109989000E-03 0. -1.
     -623    1    1    2    0    0  0.11822185109E-03  0.14716100629E-03  0.46426410353E-04  0.17130000000E+03  0.17130000000E+03 0. -1.
      622    1    1    2    0    0  0.22307881862E-04  0.85993500935E-04  0.39907845845E+01  0.39908127753E+01  0.15000000000E-01 0. -1.
</event>
<event>
 5   0  0.2306700E+09  0.9118800E+02  0.7818608E-02  0.1180000E+00
       11   -1    0    0    0    0  0.00000000000E+00  0.00000000000E+00  0.39999999673E+01  0.40000000000E+01  0.51109989000E-03 0.  1.
     -623   -1    0    0    0    0  0.00000000000E+00  0.00000000000E+00  0.12525980253E-10  0.17130000000E+03  0.17130000000E+03 0. -1.
       11    1    1    2    0    0 -0.47885671974E-03 -0.13977632486E-02  0.25809088271E+00  0.25809561795E+00  0.51109989000E-03 0.  1.
     -623    1    1    2    0    0  0.27789381618E-02  0.46010213859E-03  0.35615185664E-04  0.17130000002E+03  0.17130000000E+03 0. -1.
      622    1    1    2    0    0 -0.23000814420E-02  0.93766111006E-03  0.37418734695E+01  0.37419043589E+01  0.15000000000E-01 0.  1.
</event>
<event>
 5   0  0.2306700E+09  0.9118800E+02  0.7818608E-02  0.1180000E+00
       11   -1    0    0    0    0  0.00000000000E+00  0.00000000000E+00  0.39999999673E+01  0.40000000000E+01  0.51109989000E-03 0. -1.
     -623   -1    0    0    0    0  0.00000000000E+00  0.00000000000E+00  0.12525980253E-10  0.17130000000E+03  0.17130000000E+03 0. -1.
       11    1    1    2    0    0  0.14673321624E-02  0.57859756451E-02  0.51568206069E+00  0.51571685983E+00  0.51109989000E-03 0. -1.
     -623    1    1    2    0    0  0.19695833053E-03 -0.27404083339E-05  0.72251687098E-04  0.17130000000E+03  0.17130000000E+03 0. -1.
      622    1    1    2    0    0 -0.16642904927E-02 -0.57832352367E-02  0.34842456486E+01  0.34842831337E+01  0.15000000000E-01 0. -1.
</event>
<event>
 5   0  0.2306700E+09  0.9118800E+02  0.7818608E-02  0.1180000E+00
       11   -1    0    0    0    0  0.00000000000E+00  0.00000000000E+00  0.39999999673E+01  0.40000000000E+01  0.51109989000E-03 0. -1.
     -623   -1    0    0    0    0  0.00000000000E+00  0.00000000000E+00  0.12525980253E-10  0.17130000000E+03  0.17130000000E+03 0. -1.
       11    1    1    2    0    0 -0.28382030406E-02 -0.55784503371E-02  0.19534253508E+00  0.19544344895E+00  0.51109989000E-03 0. -1.
     -623    1    1    2    0    0 -0.12376703321E-02 -0.13884645888E-02  0.13902356972E-03  0.17130000001E+03  0.17130000000E+03 0. -1.
      622    1    1    2    0    0  0.40758733728E-02  0.69669149259E-02  0.38045184087E+01  0.38045565409E+01  0.15000000000E-01 0. -1.
</event>
<event>
 5   0  0.2306700E+09  0.9118800E+02  0.7818608E-02  0.1180000E+00
       11   -1    0    0    0    0  0.00000000000E+00  0.00000000000E+00  0.39999999673E+01  0.40000000000E+01  0.51109989000E-03 0. -1.
     -623   -1    0    0    0    0  0.00000000000E+00  0.00000000000E+00  0.12525980253E-10  0.17130000000E+03  0.17130000000E+03 0.  1.
       11    1    1    2    0    0  0.62396312156E-05  0.87800152743E-03  0.64104670820E-02  0.64904726957E-02  0.51109989000E-03 0. -1.
     -623    1    1    2    0    0 -0.37138259080E-03 -0.10990600922E-03  0.10823481537E-03  0.17130000000E+03  0.17130000000E+03 0.  1.
      622    1    1    2    0    0  0.36514295959E-03 -0.76809551821E-03  0.39934812655E+01  0.39935095268E+01  0.15000000000E-01 0. -1.
</event>
<event>
 5   0  0.2306700E+09  0.9118800E+02  0.7818608E-02  0.1180000E+00
       11   -1    0    0    0    0  0.00000000000E+00  0.00000000000E+00  0.39999999673E+01  0.40000000000E+01  0.51109989000E-03 0.  1.
     -623   -1    0    0    0    0  0.00000000000E+00  0.00000000000E+00  0.12525980253E-10  0.17130000000E+03  0.17130000000E+03 0. -1.
       11    1    1    2    0    0  0.80685804438E-03 -0.58299683572E-03  0.33303085562E-01  0.33321879243E-01  0.51109989000E-03 0.  1.
     -623    1    1    2    0    0 -0.35834273901E-03  0.64186113985E-03  0.47149782365E-04  0.17130000000E+03  0.17130000000E+03 0. -1.
      622    1    1    2    0    0 -0.44851530551E-03 -0.58864303882E-04  0.39666497305E+01  0.39666781176E+01  0.15000000000E-01 0.  1.
</event>
<event>
 5   0  0.2306700E+09  0.9118800E+02  0.7818608E-02  0.1180000E+00
       11   -1    0    0    0    0  0.00000000000E+00  0.00000000000E+00  0.39999999673E+01  0.40000000000E+01  0.51109989000E-03 0. -1.
     -623   -1    0    0    0    0  0.00000000000E+00  0.00000000000E+00  0.12525980253E-10  0.17130000000E+03  0.17130000000E+03 0. -1.
       11    1    1    2    0    0 -0.17356813518E-01 -0.18534757955E-01  0.38488445010E+00  0.38572152828E+00  0.51109989000E-03 0. -1.
     -623    1    1    2    0    0  0.68435818281E-02 -0.44733754258E-02  0.95689606176E-03  0.17130000020E+03  0.17130000000E+03 0. -1.
      622    1    1    2    0    0  0.10513231690E-01  0.23008133381E-01  0.36141586211E+01  0.36142782739E+01  0.15000000000E-01 0. -1.
</event>
<event>
 5   0  0.2306700E+09  0.9118800E+02  0.7818608E-02  0.1180000E+00
       11   -1    0    0    0    0  0.00000000000E+00  0.00000000000E+00  0.39999999673E+01  0.40000000000E+01  0.51109989000E-03 0.  1.
     -623   -1    0    0    0    0  0.00000000000E+00  0.00000000000E+00  0.12525980253E-10  0.17130000000E+03  0.17130000000E+03 0.  1.
       11    1    1    2    0    0 -0.41700445419E-03 -0.38089120517E-03  0.74791199223E-01  0.74795077857E-01  0.51109989000E-03 0.  1.
     -623    1    1    2    0    0 -0.18104569401E-03 -0.10997356172E-02  0.32835467977E-04  0.17130000000E+03  0.17130000000E+03 0.  1.
      622    1    1    2    0    0  0.59805014820E-03  0.14806268224E-02  0.39251759327E+01  0.39252049185E+01  0.15000000000E-01 0.  1.
</event>
<event>
 5   0  0.2306700E+09  0.9118800E+02  0.7818608E-02  0.1180000E+00
       11   -1    0    0    0    0  0.00000000000E+00  0.00000000000E+00  0.39999999673E+01  0.40000000000E+01  0.51109989000E-03 0. -1.
     -623   -1    0    0    0    0  0.00000000000E+00  0.00000000000E+00  0.12525980253E-10  0.17130000000E+03  0.17130000000E+03 0.  1.
       11    1    1    2    0    0  0.82027964666E-03 -0.40123106276E-03  0.18945094788E+00  0.18945383796E+00  0.51109989000E-03 0. -1.
     -623    1    1    2    0    0  0.26045195591E-02  0.17598339636E-02  0.34190991408E-04  0.17130000003E+03  0.17130000000E+03 0.  1.
      622    1    1    2    0    0 -0.34247992058E-02 -0.13586029008E-02  0.38105148285E+01  0.38105461332E+01  0.15000000000E-01 0. -1.
</event>
<event>
 5   0  0.2306700E+09  0.9118800E+02  0.7818608E-02  0.1180000E+00
       11   -1    0    0    0    0  0.00000000000E+00  0.00000000000E+00  0.39999999673E+01  0.40000000000E+01  0.51109989000E-03 0. -1.
     -623   -1    0    0    0    0  0.00000000000E+00  0.00000000000E+00  0.12525980253E-10  0.17130000000E+03  0.17130000000E+03 0.  1.
       11    1    1    2    0    0 -0.14792744035E-02  0.17829238841E-02  0.24326799260E+00  0.24327956041E+00  0.51109989000E-03 0. -1.
     -623    1    1    2    0    0  0.56341862387E-03 -0.15610411122E-02  0.41607863655E-04  0.17130000001E+03  0.17130000000E+03 0.  1.
      622    1    1    2    0    0  0.91585577968E-03 -0.22188277188E-03  0.37566903669E+01  0.37567204315E+01  0.15000000000E-01 0. -1.
</event>
<event>
 5   0  0.2306700E+09  0.9118800E+02  0.7818608E-02  0.1180000E+00
       11   -1    0    0    0    0  0.00000000000E+00  0.00000000000E+00  0.39999999673E+01  0.40000000000E+01  0.51109989000E-03 0.  1.
     -623   -1    0    0    0    0  0.00000000000E+00  0.00000000000E+00  0.12525980253E-10  0.17130000000E+03  0.17130000000E+03 0. -1.
       11    1    1    2    0    0 -0.22395246043E-02  0.19894404764E-02  0.19889906660E+00  0.19892227945E+00  0.51109989000E-03 0.  1.
     -623    1    1    2    0    0  0.33326236703E-02 -0.12753977702E-02  0.53038611501E-04  0.17130000004E+03  0.17130000000E+03 0. -1.
      622    1    1    2    0    0 -0.10930990741E-02 -0.71404270320E-03  0.38010478718E+01  0.38010776930E+01  0.15000000000E-01 0.  1.
</event>
<event>
 5   0  0.2306700E+09  0.9118800E+02  0.7818608E-02  0.1180000E+00
       11   -1    0    0    0    0  0.00000000000E+00  0.00000000000E+00  0.39999999673E+01  0.40000000000E+01  0.51109989000E-03 0. -1.
     -623   -1    0    0    0    0  0.00000000000E+00  0.00000000000E+00  0.12525980253E-10  0.17130000000E+03  0.17130000000E+03 0. -1.
       11    1    1    2    0    0 -0.10200065327E-02  0.57385731584E-02  0.73178336636E+00  0.73180675600E+00  0.51109989000E-03 0. -1.
     -623    1    1    2    0    0  0.20159054596E-03 -0.87803767723E-04  0.62767705468E-04  0.17130000000E+03  0.17130000000E+03 0. -1.
      622    1    1    2    0    0  0.81841598637E-03 -0.56507693905E-02  0.32681538415E+01  0.32681932520E+01  0.15000000000E-01 0. -1.
</event>
<event>
 5   0  0.2306700E+09  0.9118800E+02  0.7818608E-02  0.1180000E+00
       11   -1    0    0    0    0  0.00000000000E+00  0.00000000000E+00  0.39999999673E+01  0.40000000000E+01  0.51109989000E-03 0.  1.
     -623   -1    0    0    0    0  0.00000000000E+00  0.00000000000E+00  0.12525980253E-10  0.17130000000E+03  0.17130000000E+03 0. -1.
       11    1    1    2    0    0 -0.42490157162E-02 -0.31127659818E-02  0.39353384525E+00  0.39356942466E+00  0.51109989000E-03 0.  1.
     -623    1    1    2    0    0  0.60585197574E-03 -0.54953666165E-03  0.70442839959E-04  0.17130000000E+03  0.17130000000E+03 0. -1.
      622    1    1    2    0    0  0.36431637403E-02  0.36623026436E-02  0.36063956803E+01  0.36064305744E+01  0.15000000000E-01 0.  1.
</event>
<event>
 5   0  0.2306700E+09  0.9118800E+02  0.7818608E-02  0.1180000E+00
       11   -1    0    0    0    0  0.00000000000E+00  0.00000000000E+00  0.39999999673E+01  0.40000000000E+01  0.51109989000E-03 0. -1.
     -623   -1    0    0    0    0  0.00000000000E+00  0.00000000000E+00  0.12525980253E-10  0.17130000000E+03  0.17130000000E+03 0.  1.
       11    1    1    2    0    0 -0.18221832438E-03  0.57848205831E-03  0.31876179738E+00  0.31876278412E+00  0.51109989000E-03 0. -1.
     -623    1    1    2    0    0 -0.44453053860E-04 -0.37633672136E-04  0.31561322447E-04  0.17130000000E+03  0.17130000000E+03 0.  1.
      622    1    1    2    0    0  0.22667137834E-03 -0.54084838609E-03  0.36812066171E+01  0.36812372243E+01  0.15000000000E-01 0. -1.
</event>
<event>
 5   0  0.2306700E+09  0.9118800E+02  0.7818608E-02  0.1180000E+00
       11   -1    0    0    0    0  0.00000000000E+00  0.00000000000E+00  0.39999999673E+01  0.40000000000E+01  0.51109989000E-03 0.  1.
     -623   -1    0    0    0    0  0.00000000000E+00  0.00000000000E+00  0.12525980253E-10  0.17130000000E+03  0.17130000000E+03 0. -1.
       11    1    1    2    0    0 -0.83243854527E-03  0.17181466382E-02  0.17737861883E-01  0.17847631470E-01  0.51109989000E-03 0.  1.
     -623    1    1    2    0    0  0.18636031050E-03  0.43178391493E-03  0.13862158223E-03  0.17130000000E+03  0.17130000000E+03 0. -1.
      622    1    1    2    0    0  0.64607823467E-03 -0.21499305534E-02  0.39821234862E+01  0.39821523702E+01  0.15000000000E-01 0.  1.
</event>
<event>
 5   0  0.2306700E+09  0.9118800E+02  0.7818608E-02  0.1180000E+00
       11   -1    0    0    0    0  0.00000000000E+00  0.00000000000E+00  0.39999999673E+01  0.40000000000E+01  0.51109989000E-03 0. -1.
     -623   -1    0    0    0    0  0.00000000000E+00  0.00000000000E+00  0.12525980253E-10  0.17130000000E+03  0.17130000000E+03 0.  1.
       11    1    1    2    0    0  0.14574478554E-02  0.53861593829E-03  0.12336393601E-01  0.12444359803E-01  0.51109989000E-03 0. -1.
     -623    1    1    2    0    0 -0.21975137697E-02  0.98006757002E-04  0.13628010821E-03  0.17130000001E+03  0.17130000000E+03 0.  1.
      622    1    1    2    0    0  0.74006591429E-03 -0.63662269529E-03  0.39875272937E+01  0.39875556260E+01  0.15000000000E-01 0. -1.
</event>
<event>
 5   0  0.2306700E+09  0.9118800E+02  0.7818608E-02  0.1180000E+00
       11   -1    0    0    0    0  0.00000000000E+00  0.00000000000E+00  0.39999999673E+01  0.40000000000E+01  0.51109989000E-03 0.  1.
     -623   -1    0    0    0    0  0.00000000000E+00  0.00000000000E+00  0.12525980253E-10  0.17130000000E+03  0.17130000000E+03 0. -1.
       11    1    1    2    0    0 -0.10761957318E-03  0.94198246951E-03  0.19263632312E-01  0.19293720858E-01  0.51109989000E-03 0.  1.
     -623    1    1    2    0    0  0.81971303821E-03 -0.18703512925E-02  0.58501453605E-04  0.17130000001E+03  0.17130000000E+03 0. -1.
      622    1    1    2    0    0 -0.71209346502E-03  0.92836882304E-03  0.39806778336E+01  0.39807062670E+01  0.15000000000E-01 0.  1.
</event>
<event>
 5   0  0.2306700E+09  0.9118800E+02  0.7818608E-02  0.1180000E+00
       11   -1    0    0    0    0  0.00000000000E+00  0.00000000000E+00  0.39999999673E+01  0.40000000000E+01  0.51109989000E-03 0.  1.
     -623   -1    0    0    0    0  0.00000000000E+00  0.00000000000E+00  0.12525980253E-10  0.17130000000E+03  0.17130000000E+03 0.  1.
       11    1    1    2    0    0  0.14847259320E-03  0.70365523045E-03  0.54435281645E-02  0.55145622464E-02  0.51109989000E-03 0.  1.
     -623    1    1    2    0    0 -0.61740145546E-03 -0.60979662363E-03  0.99196223216E-04  0.17130000000E+03  0.17130000000E+03 0.  1.
      622    1    1    2    0    0  0.46892886243E-03 -0.93858606646E-04  0.39944572441E+01  0.39944854367E+01  0.15000000000E-01 0.  1.
</event>
<event>
 5   0  0.2306700E+09  0.9118800E+02  0.7818608E-02  0.1180000E+00
       11   -1    0    0    0    0  0.00000000000E+00  0.00000000000E+00  0.39999999673E+01  0.40000000000E+01  0.51109989000E-03 0. -1.
     -623   -1    0    0    0    0  0.00000000000E+00  0.00000000000E+00  0.12525980253E-10  0.17130000000E+03  0.17130000000E+03 0.  1.
       11    1    1    2    0    0  0.14634626025E-03 -0.45807179838E-03  0.17312494275E-02  0.18680724499E-02  0.51109989000E-03 0.  1.
     -623    1    1    2    0    0  0.82127555758E-03 -0.50172477369E-04  0.16508007428E-03  0.17130000000E+03  0.17130000000E+03 0.  1.
      622    1    1    2    0    0 -0.96762181809E-03  0.50824427576E-03  0.39981036392E+01  0.39981319268E+01  0.15000000000E-01 0. -1.
</event>
<event>
 5   0  0.2306700E+09  0.9118800E+02  0.7818608E-02  0.1180000E+00
       11   -1    0    0    0    0  0.00000000000E+00  0.00000000000E+00  0.39999999673E+01  0.40000000000E+01  0.51109989000E-03 0. -1.
     -623   -1    0    0    0    0  0.00000000000E+00  0.00000000000E+00  0.12525980253E-10  0.17130000000E+03  0.17130000000E+03 0. -1.
       11    1    1    2    0    0  0.90331361583E-03 -0.48514983463E-03  0.22604395004E+00  0.22604685337E+00  0.51109989000E-03 0. -1.
     -623    1    1    2    0    0  0.11307911332E-02 -0.59984411817E-03  0.33389329044E-04  0.17130000000E+03  0.17130000000E+03 0. -1.
      622    1    1    2    0    0 -0.20341047490E-02  0.10849939528E-02  0.37739226280E+01  0.37739531418E+01  0.15000000000E-01 0. -1.
</event>
<event>
 5   0  0.2306700E+09  0.9118800E+02  0.7818608E-02  0.1180000E+00
       11   -1    0    0    0    0  0.00000000000E+00  0.00000000000E+00  0.39999999673E+01  0.40000000000E+01  0.51109989000E-03 0. -1.
     -623   -1    0    0    0    0  0.00000000000E+00  0.00000000000E+00  0.12525980253E-10  0.17130000000E+03  0.17130000000E+03 0.  1.
       11    1    1    2    0    0 -0.11738856301E-02  0.15209072733E-03  0.37579941675E-01  0.37602052849E-01  0.51109989000E-03 0. -1.
     -623    1    1    2    0    0 -0.22352157876E-03  0.89270717185E-03  0.50857171178E-04  0.17130000000E+03  0.17130000000E+03 0.  1.
      622    1    1    2    0    0  0.13974072089E-02 -0.10447978995E-02  0.39623691698E+01  0.39623979459E+01  0.15000000000E-01 0. -1.
</event>
<event>
 5   0  0.2306700E+09  0.9118800E+02  0.7818608E-02  0.1180000E+00
       11   -1    0    0    0    0  0.00000000000E+00  0.00000000000E+00  0.39999999673E+01  0.40000000000E+01  0.51109989000E-03 0. -1.
     -623   -1    0    0    0    0  0.00000000000E+00  0.00000000000E+00  0.12525980253E-10  0.17130000000E+03  0.17130000000E+03 0. -1.
       11    1    1    2    0    0  0.37871613980E-02  0.15616743014E-03  0.24787838902E+00  0.24790789408E+00  0.51109989000E-03 0. -1.
     -623    1    1    2    0    0  0.10070786151E-03 -0.61406805078E-04  0.61471354402E-04  0.17130000000E+03  0.17130000000E+03 0. -1.
      622    1    1    2    0    0 -0.38878692596E-02 -0.94760624984E-04  0.37520601119E+01  0.37520921108E+01  0.15000000000E-01 0.  0.
</event>
<event>
 5   0  0.2306700E+09  0.9118800E+02  0.7818608E-02  0.1180000E+00
       11   -1    0    0    0    0  0.00000000000E+00  0.00000000000E+00  0.39999999673E+01  0.40000000000E+01  0.51109989000E-03 0. -1.
     -623   -1    0    0    0    0  0.00000000000E+00  0.00000000000E+00  0.12525980253E-10  0.17130000000E+03  0.17130000000E+03 0.  1.
       11    1    1    2    0    0  0.43206548941E-02 -0.48795793293E-02  0.25792390148E+00  0.25800674125E+00  0.51109989000E-03 0.  1.
     -623    1    1    2    0    0 -0.15912910686E-02  0.92347017064E-03  0.11596800603E-03  0.17130000001E+03  0.17130000000E+03 0.  1.
      622    1    1    2    0    0 -0.27293638255E-02  0.39561091587E-02  0.37419600979E+01  0.37419932488E+01  0.15000000000E-01 0. -1.
</event>
<event>
 5   0  0.2306700E+09  0.9118800E+02  0.7818608E-02  0.1180000E+00
       11   -1    0    0    0    0  0.00000000000E+00  0.00000000000E+00  0.39999999673E+01  0.40000000000E+01  0.51109989000E-03 0. -1.
     -623   -1    0    0    0    0  0.00000000000E+00  0.00000000000E+00  0.12525980253E-10  0.17130000000E+03  0.17130000000E+03 0.  1.
       11    1    1    2    0    0 -0.60748591899E-03 -0.84240284869E-03  0.15016207028E+00  0.15016653174E+00  0.51109989000E-03 0. -1.
     -623    1    1    2    0    0  0.73388384499E-03 -0.17812435683E-03  0.33789981315E-04  0.17130000000E+03  0.17130000000E+03 0.  1.
      622    1    1    2    0    0 -0.12639792600E-03  0.10205272055E-02  0.38498041071E+01  0.38498334666E+01  0.15000000000E-01 0. -1.
</event>
<event>
 5   0  0.2306700E+09  0.9118800E+02  0.7818608E-02  0.1180000E+00
       11   -1    0    0    0    0  0.00000000000E+00  0.00000000000E+00  0.39999999673E+01  0.40000000000E+01  0.51109989000E-03 0. -1.
     -623   -1    0    0    0    0  0.00000000000E+00  0.00000000000E+00  0.12525980253E-10  0.17130000000E+03  0.17130000000E+03 0.  1.
       11    1    1    2    0    0  0.13915680815E-03 -0.10216839115E-02  0.22205814631E-01  0.22235616164E-01  0.51109989000E-03 0. -1.
     -623    1    1    2    0    0 -0.30126007584E-03 -0.14732227881E-03  0.58226631404E-04  0.17130000000E+03  0.17130000000E+03 0.  1.
      622    1    1    2    0    0  0.16210326769E-03  0.11690061903E-02  0.39777359261E+01  0.39777643835E+01  0.15000000000E-01 0. -1.
</event>
<event>
 5   0  0.2306700E+09  0.9118800E+02  0.7818608E-02  0.1180000E+00
       11   -1    0    0    0    0  0.00000000000E+00  0.00000000000E+00  0.39999999673E+01  0.40000000000E+01  0.51109989000E-03 0. -1.
     -623   -1    0    0    0    0  0.00000000000E+00  0.00000000000E+00  0.12525980253E-10  0.17130000000E+03  0.17130000000E+03 0. -1.
       11    1    1    2    0    0  0.93463785267E-02  0.44522213281E-02  0.74995230007E+00  0.75002392673E+00  0.51109989000E-03 0. -1.
     -623    1    1    2    0    0 -0.20988177005E-02  0.88145672045E-03  0.11868299245E-03  0.17130000002E+03  0.17130000000E+03 0. -1.
      622    1    1    2    0    0 -0.72475608253E-02 -0.53336780489E-02  0.32499289860E+01  0.32499760598E+01  0.15000000000E-01 0. -1.
</event>
<event>
 5   0  0.2306700E+09  0.9118800E+02  0.7818608E-02  0.1180000E+00
       11   -1    0    0    0    0  0.00000000000E+00  0.00000000000E+00  0.39999999673E+01  0.40000000000E+01  0.51109989000E-03 0.  1.
     -623   -1    0    0    0    0  0.00000000000E+00  0.00000000000E+00  0.12525980253E-10  0.17130000000E+03  0.17130000000E+03 0.  1.
       11    1    1    2    0    0 -0.13151942115E-01  0.18388628769E-01  0.48617121129E+00  0.48669684934E+00  0.51109989000E-03 0.  1.
     -623    1    1    2    0    0  0.10136171432E-02  0.61579842990E-03  0.63000219041E-03  0.17130000001E+03  0.17130000000E+03 0.  1.
      622    1    1    2    0    0  0.12138324972E-01 -0.19004427199E-01  0.35131987539E+01  0.35133031454E+01  0.15000000000E-01 0.  1.
</event>
<event>
 5   0  0.2306700E+09  0.9118800E+02  0.7818608E-02  0.1180000E+00
       11   -1    0    0    0    0  0.00000000000E+00  0.00000000000E+00  0.39999999673E+01  0.40000000000E+01  0.51109989000E-03 0. -1.
     -623   -1    0    0    0    0  0.00000000000E+00  0.00000000000E+00  0.12525980253E-10  0.17130000000E+03  0.17130000000E+03 0.  1.
       11    1    1    2    0    0  0.40451899379E-02 -0.12682841000E-01  0.34043012163E+00  0.34069069102E+00  0.51109989000E-03 0. -1.
     -623    1    1    2    0    0  0.11329633556E-03 -0.14354834578E-03  0.31612309523E-03  0.17130000000E+03  0.17130000000E+03 0.  1.
      622    1    1    2    0    0 -0.41584862734E-02  0.12826389346E-01  0.36592537226E+01  0.36593093086E+01  0.15000000000E-01 0. -1.
</event>
<event>
 5   0  0.2306700E+09  0.9118800E+02  0.7818608E-02  0.1180000E+00
       11   -1    0    0    0    0  0.00000000000E+00  0.00000000000E+00  0.39999999673E+01  0.40000000000E+01  0.51109989000E-03 0.  1.
     -623   -1    0    0    0    0  0.00000000000E+00  0.00000000000E+00  0.12525980253E-10  0.17130000000E+03  0.17130000000E+03 0. -1.
       11    1    1    2    0    0 -0.14791588643E-02  0.10081533962E-02  0.92865478297E-01  0.92884135172E-01  0.51109989000E-03 0.  1.
     -623    1    1    2    0    0  0.42939920037E-03 -0.32024170832E-03  0.47620387431E-04  0.17130000000E+03  0.17130000000E+03 0. -1.
      622    1    1    2    0    0  0.10497596644E-02 -0.68791168816E-03  0.39070868650E+01  0.39071158603E+01  0.15000000000E-01 0.  1.
</event>
<event>
 5   0  0.2306700E+09  0.9118800E+02  0.7818608E-02  0.1180000E+00
       11   -1    0    0    0    0  0.00000000000E+00  0.00000000000E+00  0.39999999673E+01  0.40000000000E+01  0.51109989000E-03 0.  1.
     -623   -1    0    0    0    0  0.00000000000E+00  0.00000000000E+00  0.12525980253E-10  0.17130000000E+03  0.17130000000E+03 0.  1.
       11    1    1    2    0    0  0.14101313584E-03 -0.96963048728E-03  0.54320172026E-01  0.54331412461E-01  0.51109989000E-03 0.  1.
     -623    1    1    2    0    0 -0.26869978889E-03 -0.16735694014E-03  0.39886358068E-04  0.17130000000E+03  0.17130000000E+03 0.  1.
      622    1    1    2    0    0  0.12768665333E-03  0.11369874276E-02  0.39456399132E+01  0.39456685914E+01  0.15000000000E-01 0.  1.
</event>
<event>
 5   0  0.2306700E+09  0.9118800E+02  0.7818608E-02  0.1180000E+00
       11   -1    0    0    0    0  0.00000000000E+00  0.00000000000E+00  0.39999999673E+01  0.40000000000E+01  0.51109989000E-03 0.  1.
     -623   -1    0    0    0    0  0.00000000000E+00  0.00000000000E+00  0.12525980253E-10  0.17130000000E+03  0.17130000000E+03 0. -1.
       11    1    1    2    0    0 -0.22671682133E-03 -0.20816651315E-02  0.36572243887E+00  0.36572879056E+00  0.51109989000E-03 0.  1.
     -623    1    1    2    0    0  0.14640495245E-02  0.17063643404E-02  0.37519268451E-04  0.17130000001E+03  0.17130000000E+03 0. -1.
      622    1    1    2    0    0 -0.12373327068E-02  0.37530078688E-03  0.36342400191E+01  0.36342712046E+01  0.15000000000E-01 0.  1.
</event>
<event>
 5   0  0.2306700E+09  0.9118800E+02  0.7818608E-02  0.1180000E+00
       11   -1    0    0    0    0  0.00000000000E+00  0.00000000000E+00  0.39999999673E+01  0.40000000000E+01  0.51109989000E-03 0.  1.
     -623   -1    0    0    0    0  0.00000000000E+00  0.00000000000E+00  0.12525980253E-10  0.17130000000E+03  0.17130000000E+03 0.  1.
       11    1    1    2    0    0  0.25078954489E-02 -0.12195079565E-02  0.21187237410E+00  0.21189134213E+00  0.51109989000E-03 0.  1.
     -623    1    1    2    0    0 -0.22404521934E-02  0.18020562157E-02  0.48712074465E-04  0.17130000002E+03  0.17130000000E+03 0.  1.
      622    1    1    2    0    0 -0.26744325327E-03 -0.58254826106E-03  0.37880788852E+01  0.37881086378E+01  0.15000000000E-01 0.  1.
</event>
<event>
 5   0  0.2306700E+09  0.9118800E+02  0.7818608E-02  0.1180000E+00
       11   -1    0    0    0    0  0.00000000000E+00  0.00000000000E+00  0.39999999673E+01  0.40000000000E+01  0.51109989000E-03 0.  1.
     -623   -1    0    0    0    0  0.00000000000E+00  0.00000000000E+00  0.12525980253E-10  0.17130000000E+03  0.17130000000E+03 0. -1.
       11    1    1    2    0    0  0.30978294307E-02 -0.46155066979E-03  0.47557729981E-01  0.47663492112E-01  0.51109989000E-03 0.  1.
     -623    1    1    2    0    0  0.72990224460E-04 -0.31287863687E-03  0.13554192285E-03  0.17130000000E+03  0.17130000000E+03 0. -1.
      622    1    1    2    0    0 -0.31708196552E-02  0.77442930677E-03  0.39523066967E+01  0.39523365088E+01  0.15000000000E-01 0.  1.
</event>
<event>
 5   0  0.2306700E+09  0.9118800E+02  0.7818608E-02  0.1180000E+00
       11   -1    0    0    0    0  0.00000000000E+00  0.00000000000E+00  0.39999999673E+01  0.40000000000E+01  0.51109989000E-03 0. -1.
     -623   -1    0    0    0    0  0.00000000000E+00  0.00000000000E+00  0.12525980253E-10  0.17130000000E+03  0.17130000000E+03 0. -1.
       11    1    1    2    0    0 -0.42991463576E-03  0.37225182414E-03  0.11210997662E-01  0.11237040900E-01  0.51109989000E-03 0.  1.
     -623    1    1    2    0    0 -0.35086704708E-04  0.50808133758E-04  0.54264490772E-04  0.17130000000E+03  0.17130000000E+03 0. -1.
      622    1    1    2    0    0  0.46500134046E-03 -0.42305995790E-03  0.39887347052E+01  0.39887629591E+01  0.15000000000E-01 0. -1.
</event>
<event>
 5   0  0.2306700E+09  0.9118800E+02  0.7818608E-02  0.1180000E+00
       11   -1    0    0    0    0  0.00000000000E+00  0.00000000000E+00  0.39999999673E+01  0.40000000000E+01  0.51109989000E-03 0. -1.
     -623   -1    0    0    0    0  0.00000000000E+00  0.00000000000E+00  0.12525980253E-10  0.17130000000E+03  0.17130000000E+03 0.  1.
       11    1    1    2    0    0  0.10555680838E-03 -0.36288778209E-02  0.93108741531E+00  0.93109463325E+00  0.51109989000E-03 0. -1.
     -623    1    1    2    0    0  0.64543745779E-03  0.81633973892E-03  0.45227406235E-04  0.17130000000E+03  0.17130000000E+03 0.  1.
      622    1    1    2    0    0 -0.75099426617E-03  0.28125380820E-02  0.30688673246E+01  0.30689053636E+01  0.15000000000E-01 0. -1.
</event>
<event>
 5   0  0.2306700E+09  0.9118800E+02  0.7818608E-02  0.1180000E+00
       11   -1    0    0    0    0  0.00000000000E+00  0.00000000000E+00  0.39999999673E+01  0.40000000000E+01  0.51109989000E-03 0.  1.
     -623   -1    0    0    0    0  0.00000000000E+00  0.00000000000E+00  0.12525980253E-10  0.17130000000E+03  0.17130000000E+03 0. -1.
       11    1    1    2    0    0  0.60603561192E-02 -0.64549827550E-02  0.10455762923E+01  0.10456139053E+01  0.51109989000E-03 0.  1.
     -623    1    1    2    0    0 -0.59812408637E-02  0.14029519888E-01  0.86049654640E-04  0.17130000068E+03  0.17130000000E+03 0. -1.
      622    1    1    2    0    0 -0.79115255500E-04 -0.75745371331E-02  0.29543376254E+01  0.29543854158E+01  0.15000000000E-01 0.  1.
</event>
<event>
 5   0  0.2306700E+09  0.9118800E+02  0.7818608E-02  0.1180000E+00
       11   -1    0    0    0    0  0.00000000000E+00  0.00000000000E+00  0.39999999673E+01  0.40000000000E+01  0.51109989000E-03 0.  1.
     -623   -1    0    0    0    0  0.00000000000E+00  0.00000000000E+00  0.12525980253E-10  0.17130000000E+03  0.17130000000E+03 0. -1.
       11    1    1    2    0    0  0.73656018651E-02 -0.70603439773E-02  0.32719537730E+00  0.32735481773E+00  0.51109989000E-03 0.  1.
     -623    1    1    2    0    0 -0.74249773185E-02 -0.40965236037E-02  0.20719681346E-03  0.17130000021E+03  0.17130000000E+03 0. -1.
      622    1    1    2    0    0  0.59375453475E-04  0.11156867581E-01  0.36725973932E+01  0.36726449722E+01  0.15000000000E-01 0.  1.
</event>
<event>
 5   0  0.2306700E+09  0.9118800E+02  0.7818608E-02  0.1180000E+00
       11   -1    0    0    0    0  0.00000000000E+00  0.00000000000E+00  0.39999999673E+01  0.40000000000E+01  0.51109989000E-03 0. -1.
     -623   -1    0    0    0    0  0.00000000000E+00  0.00000000000E+00  0.12525980253E-10  0.17130000000E+03  0.17130000000E+03 0.  1.
       11    1    1    2    0    0  0.51667280909E-02 -0.10403792141E-02  0.12623898937E+00  0.12634999457E+00  0.51109989000E-03 0. -1.
     -623    1    1    2    0    0  0.37614452277E-04 -0.39125787120E-03  0.14377621960E-03  0.17130000000E+03  0.17130000000E+03 0.  1.
      622    1    1    2    0    0 -0.52043425432E-02  0.14316370853E-02  0.38736172018E+01  0.38736500049E+01  0.15000000000E-01 0. -1.
</event>
<event>
 5   0  0.2306700E+09  0.9118800E+02  0.7818608E-02  0.1180000E+00
       11   -1    0    0    0    0  0.00000000000E+00  0.00000000000E+00  0.39999999673E+01  0.40000000000E+01  0.51109989000E-03 0.  1.
     -623   -1    0    0    0    0  0.00000000000E+00  0.00000000000E+00  0.12525980253E-10  0.17130000000E+03  0.17130000000E+03 0. -1.
       11    1    1    2    0    0  0.14887096050E-02  0.72967376188E-02  0.38178976504E-01  0.38901852220E-01  0.51109989000E-03 0.  1.
     -623    1    1    2    0    0 -0.16478855654E-01  0.25593509804E-02  0.79268445970E-03  0.17130000081E+03  0.17130000000E+03 0. -1.
      622    1    1    2    0    0  0.14990146048E-01 -0.98560885992E-02  0.39610283063E+01  0.39610973341E+01  0.15000000000E-01 0.  1.
</event>
<event>
 5   0  0.2306700E+09  0.9118800E+02  0.7818608E-02  0.1180000E+00
       11   -1    0    0    0    0  0.00000000000E+00  0.00000000000E+00  0.39999999673E+01  0.40000000000E+01  0.51109989000E-03 0.  1.
     -623   -1    0    0    0    0  0.00000000000E+00  0.00000000000E+00  0.12525980253E-10  0.17130000000E+03  0.17130000000E+03 0.  1.
       11    1    1    2    0    0 -0.24048395542E-02 -0.13436183666E-01  0.13415022170E+00  0.13484382628E+00  0.51109989000E-03 0.  1.
     -623    1    1    2    0    0  0.95882762604E-03 -0.29977387516E-02  0.75791674226E-03  0.17130000003E+03  0.17130000000E+03 0.  1.
      622    1    1    2    0    0  0.14460119281E-02  0.16433922418E-01  0.38650918289E+01  0.38651561431E+01  0.15000000000E-01 0.  1.
</event>
<event>
 5   0  0.2306700E+09  0.9118800E+02  0.7818608E-02  0.1180000E+00
       11   -1    0    0    0    0  0.00000000000E+00  0.00000000000E+00  0.39999999673E+01  0.40000000000E+01  0.51109989000E-03 0. -1.
     -623   -1    0    0    0    0  0.00000000000E+00  0.00000000000E+00  0.12525980253E-10  0.17130000000E+03  0.17130000000E+03 0. -1.
       11    1    1    2    0    0 -0.25083369829E-06 -0.44578058234E-03  0.15499268280E-01  0.15514098764E-01  0.51109989000E-03 0. -1.
     -623    1    1    2    0    0  0.10404246140E-03  0.46478970801E-04  0.43053854874E-04  0.17130000000E+03  0.17130000000E+03 0. -1.
      622    1    1    2    0    0 -0.10379162770E-03  0.39930161154E-03  0.39844576452E+01  0.39844859012E+01  0.15000000000E-01 0. -1.
</event>
<event>
 5   0  0.2306700E+09  0.9118800E+02  0.7818608E-02  0.1180000E+00
       11   -1    0    0    0    0  0.00000000000E+00  0.00000000000E+00  0.39999999673E+01  0.40000000000E+01  0.51109989000E-03 0. -1.
     -623   -1    0    0    0    0  0.00000000000E+00  0.00000000000E+00  0.12525980253E-10  0.17130000000E+03  0.17130000000E+03 0.  1.
       11    1    1    2    0    0 -0.12254568399E-02  0.78597634336E-03  0.12221460621E+00  0.12222434576E+00  0.51109989000E-03 0. -1.
     -623    1    1    2    0    0  0.66531464717E-03  0.53970931799E-03  0.38987708723E-04  0.17130000000E+03  0.17130000000E+03 0.  1.
      622    1    1    2    0    0  0.56014219130E-03 -0.13256856625E-02  0.38777463822E+01  0.38777756609E+01  0.15000000000E-01 0. -1.
</event>
<event>
 5   0  0.2306700E+09  0.9118800E+02  0.7818608E-02  0.1180000E+00
       11   -1    0    0    0    0  0.00000000000E+00  0.00000000000E+00  0.39999999673E+01  0.40000000000E+01  0.51109989000E-03 0.  1.
     -623   -1    0    0    0    0  0.00000000000E+00  0.00000000000E+00  0.12525980253E-10  0.17130000000E+03  0.17130000000E+03 0.  1.
       11    1    1    2    0    0  0.93318844638E-03  0.29553825177E-02  0.14178169122E+00  0.14181648111E+00  0.51109989000E-03 0.  1.
     -623    1    1    2    0    0 -0.16660081083E-02 -0.31109851616E-03  0.64900317093E-04  0.17130000001E+03  0.17130000000E+03 0.  1.
      622    1    1    2    0    0  0.73281966274E-03 -0.26442840014E-02  0.38581533777E+01  0.38581835124E+01  0.15000000000E-01 0.  1.
</event>
<event>
 5   0  0.2306700E+09  0.9118800E+02  0.7818608E-02  0.1180000E+00
       11   -1    0    0    0    0  0.00000000000E+00  0.00000000000E+00  0.39999999673E+01  0.40000000000E+01  0.51109989000E-03 0.  1.
     -623   -1    0    0    0    0  0.00000000000E+00  0.00000000000E+00  0.12525980253E-10  0.17130000000E+03  0.17130000000E+03 0.  1.
       11    1    1    2    0    0  0.26335317176E-01 -0.13456805805E-01  0.48432396825E+00  0.48522634099E+00  0.51109989000E-03 0.  1.
     -623    1    1    2    0    0 -0.38929152944E-02  0.74320085536E-03  0.10290420379E-02  0.17130000005E+03  0.17130000000E+03 0.  1.
      622    1    1    2    0    0 -0.22442401881E-01  0.12713604950E-01  0.35146469573E+01  0.35147736103E+01  0.15000000000E-01 0.  1.
</event>
<event>
 5   0  0.2306700E+09  0.9118800E+02  0.7818608E-02  0.1180000E+00
       11   -1    0    0    0    0  0.00000000000E+00  0.00000000000E+00  0.39999999673E+01  0.40000000000E+01  0.51109989000E-03 0. -1.
     -623   -1    0    0    0    0  0.00000000000E+00  0.00000000000E+00  0.12525980253E-10  0.17130000000E+03  0.17130000000E+03 0.  1.
       11    1    1    2    0    0  0.38642292079E-02 -0.58763305340E-03  0.39037471643E+00  0.39039461834E+00  0.51109989000E-03 0. -1.
     -623    1    1    2    0    0 -0.11733079043E-02  0.62848265480E-03  0.52044692080E-04  0.17130000001E+03  0.17130000000E+03 0.  1.
      622    1    1    2    0    0 -0.26909213036E-02 -0.40849601399E-04  0.36095732062E+01  0.36096053765E+01  0.15000000000E-01 0. -1.
</event>
<event>
 5   0  0.2306700E+09  0.9118800E+02  0.7818608E-02  0.1180000E+00
       11   -1    0    0    0    0  0.00000000000E+00  0.00000000000E+00  0.39999999673E+01  0.40000000000E+01  0.51109989000E-03 0.  1.
     -623   -1    0    0    0    0  0.00000000000E+00  0.00000000000E+00  0.12525980253E-10  0.17130000000E+03  0.17130000000E+03 0. -1.
       11    1    1    2    0    0  0.56267413602E-02 -0.96308695932E-02  0.11103484105E+01  0.11104045514E+01  0.51109989000E-03 0.  1.
     -623    1    1    2    0    0  0.27718361389E-02 -0.20600829340E-02  0.13093216024E-03  0.17130000003E+03  0.17130000000E+03 0. -1.
      622    1    1    2    0    0 -0.83985774992E-02  0.11690952527E-01  0.28895206247E+01  0.28895954138E+01  0.15000000000E-01 0.  1.
</event>
<event>
 5   0  0.2306700E+09  0.9118800E+02  0.7818608E-02  0.1180000E+00
       11   -1    0    0    0    0  0.00000000000E+00  0.00000000000E+00  0.39999999673E+01  0.40000000000E+01  0.51109989000E-03 0.  1.
     -623   -1    0    0    0    0  0.00000000000E+00  0.00000000000E+00  0.12525980253E-10  0.17130000000E+03  0.17130000000E+03 0. -1.
       11    1    1    2    0    0  0.98890307576E-02 -0.29514548213E-02  0.48483763456E+00  0.48494772617E+00  0.51109989000E-03 0.  1.
     -623    1    1    2    0    0 -0.48193745233E-02 -0.60937298112E-03  0.14759283937E-03  0.17130000007E+03  0.17130000000E+03 0. -1.
      622    1    1    2    0    0 -0.50696562343E-02  0.35608278024E-02  0.35150147400E+01  0.35150522049E+01  0.15000000000E-01 0.  1.
</event>
<event>
 5   0  0.2306700E+09  0.9118800E+02  0.7818608E-02  0.1180000E+00
       11   -1    0    0    0    0  0.00000000000E+00  0.00000000000E+00  0.39999999673E+01  0.40000000000E+01  0.51109989000E-03 0.  1.
     -623   -1    0    0    0    0  0.00000000000E+00  0.00000000000E+00  0.12525980253E-10  0.17130000000E+03  0.17130000000E+03 0. -1.
       11    1    1    2    0    0  0.75120866902E-03  0.24598805475E-04  0.53777711654E-01  0.53785392194E-01  0.51109989000E-03 0.  1.
     -623    1    1    2    0    0  0.70047789201E-04  0.12778050090E-02  0.36461500171E-04  0.17130000000E+03  0.17130000000E+03 0. -1.
      622    1    1    2    0    0 -0.82125645836E-03 -0.13024038171E-02  0.39461858024E+01  0.39462146112E+01  0.15000000000E-01 0.  1.
</event>
<event>
 5   0  0.2306700E+09  0.9118800E+02  0.7818608E-02  0.1180000E+00
       11   -1    0    0    0    0  0.00000000000E+00  0.00000000000E+00  0.39999999673E+01  0.40000000000E+01  0.51109989000E-03 0.  1.
     -623   -1    0    0    0    0  0.00000000000E+00  0.00000000000E+00  0.12525980253E-10  0.17130000000E+03  0.17130000000E+03 0. -1.
       11    1    1    2    0    0  0.53854357299E-02 -0.29869012782E-01  0.74105272694E+00  0.74167416442E+00  0.51109989000E-03 0.  1.
     -623    1    1    2    0    0 -0.10558922865E-02 -0.68796380263E-03  0.80210329196E-03  0.17130000001E+03  0.17130000000E+03 0. -1.
      622    1    1    2    0    0 -0.43295434434E-02  0.30556976584E-01  0.32581451371E+01  0.32583258291E+01  0.15000000000E-01 0.  1.
</event>
<event>
 5   0  0.2306700E+09  0.9118800E+02  0.7818608E-02  0.1180000E+00
       11   -1    0    0    0    0  0.00000000000E+00  0.00000000000E+00  0.39999999673E+01  0.40000000000E+01  0.51109989000E-03 0.  1.
     -623   -1    0    0    0    0  0.00000000000E+00  0.00000000000E+00  0.12525980253E-10  0.17130000000E+03  0.17130000000E+03 0. -1.
       11    1    1    2    0    0  0.15462457580E-02  0.14570697028E-02  0.86523521613E-01  0.86551111732E-01  0.51109989000E-03 0.  1.
     -623    1    1    2    0    0  0.40423076216E-03 -0.21577068242E-02  0.56867467102E-04  0.17130000001E+03  0.17130000000E+03 0. -1.
      622    1    1    2    0    0 -0.19504765201E-02  0.70063712131E-03  0.39134195783E+01  0.39134488742E+01  0.15000000000E-01 0.  1.
</event>
<event>
 5   0  0.2306700E+09  0.9118800E+02  0.7818608E-02  0.1180000E+00
       11   -1    0    0    0    0  0.00000000000E+00  0.00000000000E+00  0.39999999673E+01  0.40000000000E+01  0.51109989000E-03 0. -1.
     -623   -1    0    0    0    0  0.00000000000E+00  0.00000000000E+00  0.12525980253E-10  0.17130000000E+03  0.17130000000E+03 0. -1.
       11    1    1    2    0    0  0.11023581126E-02 -0.46886095338E-03  0.65242410418E-01  0.65255408697E-01  0.51109989000E-03 0. -1.
     -623    1    1    2    0    0 -0.88071273754E-04  0.93398633102E-04  0.41705877512E-04  0.17130000000E+03  0.17130000000E+03 0. -1.
      622    1    1    2    0    0 -0.10142868390E-02  0.37546232036E-03  0.39347158477E+01  0.39347445879E+01  0.15000000000E-01 0.  0.
</event>
<event>
 5   0  0.2306700E+09  0.9118800E+02  0.7818608E-02  0.1180000E+00
       11   -1    0    0    0    0  0.00000000000E+00  0.00000000000E+00  0.39999999673E+01  0.40000000000E+01  0.51109989000E-03 0. -1.
     -623   -1    0    0    0    0  0.00000000000E+00  0.00000000000E+00  0.12525980253E-10  0.17130000000E+03  0.17130000000E+03 0.  1.
       11    1    1    2    0    0  0.23131243339E-02 -0.17479786949E-03  0.11742038232E+01  0.11742062258E+01  0.51109989000E-03 0. -1.
     -623    1    1    2    0    0 -0.44270652694E-04  0.12906788522E-03  0.43093359145E-04  0.17130000000E+03  0.17130000000E+03 0.  1.
      622    1    1    2    0    0 -0.22688536812E-02  0.45729984268E-04  0.28257530508E+01  0.28257937741E+01  0.15000000000E-01 0. -1.
</event>
<event>
 5   0  0.2306700E+09  0.9118800E+02  0.7818608E-02  0.1180000E+00
       11   -1    0    0    0    0  0.00000000000E+00  0.00000000000E+00  0.39999999673E+01  0.40000000000E+01  0.51109989000E-03 0.  1.
     -623   -1    0    0    0    0  0.00000000000E+00  0.00000000000E+00  0.12525980253E-10  0.17130000000E+03  0.17130000000E+03 0. -1.
       11    1    1    2    0    0 -0.11244440755E-02 -0.31414456863E-03  0.23485686467E+00  0.23486032267E+00  0.51109989000E-03 0.  1.
     -623    1    1    2    0    0 -0.99507043046E-05  0.28981916746E-04  0.33486549344E-04  0.17130000000E+03  0.17130000000E+03 0. -1.
      622    1    1    2    0    0  0.11343947799E-02  0.28516265179E-03  0.37651096288E+01  0.37651396900E+01  0.15000000000E-01 0.  1.
</event>
<event>
 5   0  0.2306700E+09  0.9118800E+02  0.7818608E-02  0.1180000E+00
       11   -1    0    0    0    0  0.00000000000E+00  0.00000000000E+00  0.39999999673E+01  0.40000000000E+01  0.51109989000E-03 0.  1.
     -623   -1    0    0    0    0  0.00000000000E+00  0.00000000000E+00  0.12525980253E-10  0.17130000000E+03  0.17130000000E+03 0. -1.
       11    1    1    2    0    0  0.13186849195E-02  0.42061555290E-02  0.19330593402E+00  0.19335686185E+00  0.51109989000E-03 0.  1.
     -623    1    1    2    0    0 -0.62302103274E-04  0.12504700365E-03  0.83120359631E-04  0.17130000000E+03  0.17130000000E+03 0. -1.
      622    1    1    2    0    0 -0.12563828162E-02 -0.43312025327E-02  0.38066109153E+01  0.38066431404E+01  0.15000000000E-01 0.  1.
</event>
<event>
 5   0  0.2306700E+09  0.9118800E+02  0.7818608E-02  0.1180000E+00
       11   -1    0    0    0    0  0.00000000000E+00  0.00000000000E+00  0.39999999673E+01  0.40000000000E+01  0.51109989000E-03 0.  1.
     -623   -1    0    0    0    0  0.00000000000E+00  0.00000000000E+00  0.12525980253E-10  0.17130000000E+03  0.17130000000E+03 0.  1.
       11    1    1    2    0    0 -0.10808046599E-02 -0.22409549263E-02  0.48903721363E-01  0.48969635530E-01  0.51109989000E-03 0.  1.
     -623    1    1    2    0    0  0.14946269270E-03 -0.10477257350E-04  0.95106552203E-04  0.17130000000E+03  0.17130000000E+03 0.  1.
      622    1    1    2    0    0  0.93134196717E-03  0.22514321837E-02  0.39510011415E+01  0.39510303664E+01  0.15000000000E-01 0.  1.
</event>
<event>
 5   0  0.2306700E+09  0.9118800E+02  0.7818608E-02  0.1180000E+00
       11   -1    0    0    0    0  0.00000000000E+00  0.00000000000E+00  0.39999999673E+01  0.40000000000E+01  0.51109989000E-03 0. -1.
     -623   -1    0    0    0    0  0.00000000000E+00  0.00000000000E+00  0.12525980253E-10  0.17130000000E+03  0.17130000000E+03 0.  1.
       11    1    1    2    0    0  0.29472537549E-02 -0.31192397686E-02  0.99748314365E+00  0.99749250576E+00  0.51109989000E-03 0. -1.
     -623    1    1    2    0    0  0.35931613491E-05  0.38743841203E-04  0.49828731345E-04  0.17130000000E+03  0.17130000000E+03 0.  1.
      622    1    1    2    0    0 -0.29508469163E-02  0.30804959274E-02  0.30024669949E+01  0.30025074942E+01  0.15000000000E-01 0. -1.
</event>
<event>
 5   0  0.2306700E+09  0.9118800E+02  0.7818608E-02  0.1180000E+00
       11   -1    0    0    0    0  0.00000000000E+00  0.00000000000E+00  0.39999999673E+01  0.40000000000E+01  0.51109989000E-03 0.  1.
     -623   -1    0    0    0    0  0.00000000000E+00  0.00000000000E+00  0.12525980253E-10  0.17130000000E+03  0.17130000000E+03 0. -1.
       11    1    1    2    0    0  0.10890092970E-02 -0.85001377971E-03  0.53672208222E+00  0.53672410346E+00  0.51109989000E-03 0.  1.
     -623    1    1    2    0    0 -0.16552160443E-02  0.17761414683E-02  0.34659767602E-04  0.17130000002E+03  0.17130000000E+03 0. -1.
      622    1    1    2    0    0  0.56620674815E-03 -0.92612768961E-03  0.34632432276E+01  0.34632758815E+01  0.15000000000E-01 0.  1.
</event>
<event>
 5   0  0.2306700E+09  0.9118800E+02  0.7818608E-02  0.1180000E+00
       11   -1    0    0    0    0  0.00000000000E+00  0.00000000000E+00  0.39999999673E+01  0.40000000000E+01  0.51109989000E-03 0.  1.
     -623   -1    0    0    0    0  0.00000000000E+00  0.00000000000E+00  0.12525980253E-10  0.17130000000E+03  0.17130000000E+03 0.  1.
       11    1    1    2    0    0 -0.14152622945E-01  0.21770613998E-01  0.63276757226E+00  0.63330033798E+00  0.51109989000E-03 0.  1.
     -623    1    1    2    0    0  0.71333006141E-02 -0.10043966417E-02  0.63766456771E-03  0.17130000015E+03  0.17130000000E+03 0.  1.
      622    1    1    2    0    0  0.70193223311E-02 -0.20766217356E-01  0.33665947305E+01  0.33666995094E+01  0.15000000000E-01 0.  1.
</event>
<event>
 5   0  0.2306700E+09  0.9118800E+02  0.7818608E-02  0.1180000E+00
       11   -1    0    0    0    0  0.00000000000E+00  0.00000000000E+00  0.39999999673E+01  0.40000000000E+01  0.51109989000E-03 0. -1.
     -623   -1    0    0    0    0  0.00000000000E+00  0.00000000000E+00  0.12525980253E-10  0.17130000000E+03  0.17130000000E+03 0. -1.
       11    1    1    2    0    0 -0.46321577222E-02  0.42174792870E-02  0.50468023090E+00  0.50471936827E+00  0.51109989000E-03 0. -1.
     -623    1    1    2    0    0 -0.20386471051E-02 -0.17493225535E-02  0.78549389307E-04  0.17130000002E+03  0.17130000000E+03 0. -1.
      622    1    1    2    0    0  0.66708048272E-02 -0.24681567334E-02  0.34952411871E+01  0.34952806107E+01  0.15000000000E-01 0. -1.
</event>
<event>
 5   0  0.2306700E+09  0.9118800E+02  0.7818608E-02  0.1180000E+00
       11   -1    0    0    0    0  0.00000000000E+00  0.00000000000E+00  0.39999999673E+01  0.40000000000E+01  0.51109989000E-03 0. -1.
     -623   -1    0    0    0    0  0.00000000000E+00  0.00000000000E+00  0.12525980253E-10  0.17130000000E+03  0.17130000000E+03 0. -1.
       11    1    1    2    0    0 -0.99772527383E-03 -0.23573964021E-02  0.52622915891E-01  0.52687619737E-01  0.51109989000E-03 0. -1.
     -623    1    1    2    0    0  0.32065342481E-04 -0.94310668857E-04  0.94051279628E-04  0.17130000000E+03  0.17130000000E+03 0. -1.
      622    1    1    2    0    0  0.96565993135E-03  0.24517070710E-02  0.39472829999E+01  0.39473123799E+01  0.15000000000E-01 0. -1.
</event>
<event>
 5   0  0.2306700E+09  0.9118800E+02  0.7818608E-02  0.1180000E+00
       11   -1    0    0    0    0  0.00000000000E+00  0.00000000000E+00  0.39999999673E+01  0.40000000000E+01  0.51109989000E-03 0.  1.
     -623   -1    0    0    0    0  0.00000000000E+00  0.00000000000E+00  0.12525980253E-10  0.17130000000E+03  0.17130000000E+03 0.  1.
       11    1    1    2    0    0  0.26335477551E-02  0.36102812964E-02  0.33131740945E+00  0.33134793908E+00  0.51109989000E-03 0.  1.
     -623    1    1    2    0    0 -0.13761310137E-03  0.10844257892E-03  0.63896240166E-04  0.17130000000E+03  0.17130000000E+03 0.  1.
      622    1    1    2    0    0 -0.24959346536E-02 -0.37187238755E-02  0.36686186660E+01  0.36686520651E+01  0.15000000000E-01 0.  1.
</event>
<event>
 5   0  0.2306700E+09  0.9118800E+02  0.7818608E-02  0.1180000E+00
       11   -1    0    0    0    0  0.00000000000E+00  0.00000000000E+00  0.39999999673E+01  0.40000000000E+01  0.51109989000E-03 0.  1.
     -623   -1    0    0    0    0  0.00000000000E+00  0.00000000000E+00  0.12525980253E-10  0.17130000000E+03  0.17130000000E+03 0.  1.
       11    1    1    2    0    0 -0.18434888443E-02 -0.23845407223E-02  0.14659930929E+00  0.14663118083E+00  0.51109989000E-03 0.  1.
     -623    1    1    2    0    0 -0.41397116913E-03  0.27815484344E-04  0.62416708904E-04  0.17130000000E+03  0.17130000000E+03 0.  1.
      622    1    1    2    0    0  0.22574600135E-02  0.23567252380E-02  0.38533382414E+01  0.38533688187E+01  0.15000000000E-01 0.  1.
</event>
<event>
 5   0  0.2306700E+09  0.9118800E+02  0.7818608E-02  0.1180000E+00
       11   -1    0    0    0    0  0.00000000000E+00  0.00000000000E+00  0.39999999673E+01  0.40000000000E+01  0.51109989000E-03 0.  1.
     -623   -1    0    0    0    0  0.00000000000E+00  0.00000000000E+00  0.12525980253E-10  0.17130000000E+03  0.17130000000E+03 0. -1.
       11    1    1    2    0    0  0.25134853970E-02 -0.16664242718E-02  0.36357005669E-01  0.36485444536E-01  0.51109989000E-03 0. -1.
     -623    1    1    2    0    0  0.58501889570E-03 -0.39745059014E-03  0.15854026205E-03  0.17130000000E+03  0.17130000000E+03 0. -1.
      622    1    1    2    0    0 -0.30985042927E-02  0.20638748619E-02  0.39634844210E+01  0.39635145535E+01  0.15000000000E-01 0.  1.
</event>
<event>
 5   0  0.2306700E+09  0.9118800E+02  0.7818608E-02  0.1180000E+00
       11   -1    0    0    0    0  0.00000000000E+00  0.00000000000E+00  0.39999999673E+01  0.40000000000E+01  0.51109989000E-03 0.  1.
     -623   -1    0    0    0    0  0.00000000000E+00  0.00000000000E+00  0.12525980253E-10  0.17130000000E+03  0.17130000000E+03 0. -1.
       11    1    1    2    0    0  0.35622152517E-02 -0.41202732754E-03  0.97776782775E+00  0.97777453707E+00  0.51109989000E-03 0.  1.
     -623    1    1    2    0    0 -0.35820804681E-03 -0.52912739106E-02  0.51063105006E-04  0.17130000008E+03  0.17130000000E+03 0. -1.
      622    1    1    2    0    0 -0.32040072047E-02  0.57033012399E-02  0.30221810778E+01  0.30222253821E+01  0.15000000000E-01 0.  1.
</event>
<event>
 5   0  0.2306700E+09  0.9118800E+02  0.7818608E-02  0.1180000E+00
       11   -1    0    0    0    0  0.00000000000E+00  0.00000000000E+00  0.39999999673E+01  0.40000000000E+01  0.51109989000E-03 0.  1.
     -623   -1    0    0    0    0  0.00000000000E+00  0.00000000000E+00  0.12525980253E-10  0.17130000000E+03  0.17130000000E+03 0. -1.
       11    1    1    2    0    0 -0.21793969019E-02  0.98653282534E-03  0.16751476550E+00  0.16753262637E+00  0.51109989000E-03 0.  1.
     -623    1    1    2    0    0  0.82357145161E-04  0.10626481156E-03  0.47912398247E-04  0.17130000000E+03  0.17130000000E+03 0. -1.
      622    1    1    2    0    0  0.20970397568E-02 -0.10927976369E-02  0.38324372895E+01  0.38324673736E+01  0.15000000000E-01 0.  1.
</event>
<event>
 5   0  0.2306700E+09  0.9118800E+02  0.7818608E-02  0.1180000E+00
       11   -1    0    0    0    0  0.00000000000E+00  0.00000000000E+00  0.39999999673E+01  0.40000000000E+01  0.51109989000E-03 0. -1.
     -623   -1    0    0    0    0  0.00000000000E+00  0.00000000000E+00  0.12525980253E-10  0.17130000000E+03  0.17130000000E+03 0.  1.
       11    1    1    2    0    0  0.17378435535E-02 -0.63114693872E-02  0.29949530182E-01  0.30660892450E-01  0.51109989000E-03 0. -1.
     -623    1    1    2    0    0 -0.15584048032E-02 -0.67550086756E-03  0.74583548228E-03  0.17130000001E+03  0.17130000000E+03 0.  1.
      622    1    1    2    0    0 -0.17943875030E-03  0.69869702547E-02  0.39693046017E+01  0.39693390975E+01  0.15000000000E-01 0. -1.
</event>
<event>
 5   0  0.2306700E+09  0.9118800E+02  0.7818608E-02  0.1180000E+00
       11   -1    0    0    0    0  0.00000000000E+00  0.00000000000E+00  0.39999999673E+01  0.40000000000E+01  0.51109989000E-03 0. -1.
     -623   -1    0    0    0    0  0.00000000000E+00  0.00000000000E+00  0.12525980253E-10  0.17130000000E+03  0.17130000000E+03 0. -1.
       11    1    1    2    0    0  0.21521656342E-03 -0.15839850067E-02  0.62667843086E-01  0.62690311108E-01  0.51109989000E-03 0. -1.
     -623    1    1    2    0    0 -0.48442912518E-03 -0.17093677125E-03  0.51409378028E-04  0.17130000000E+03  0.17130000000E+03 0. -1.
      622    1    1    2    0    0  0.26921256190E-03  0.17549217780E-02  0.39372807161E+01  0.39373096893E+01  0.15000000000E-01 0. -1.
</event>
<event>
 5   0  0.2306700E+09  0.9118800E+02  0.7818608E-02  0.1180000E+00
       11   -1    0    0    0    0  0.00000000000E+00  0.00000000000E+00  0.39999999673E+01  0.40000000000E+01  0.51109989000E-03 0.  1.
     -623   -1    0    0    0    0  0.00000000000E+00  0.00000000000E+00  0.12525980253E-10  0.17130000000E+03  0.17130000000E+03 0.  1.
       11    1    1    2    0    0  0.47281086306E-03  0.13767001366E-02  0.24213015990E-01  0.24262114864E-01  0.51109989000E-03 0.  1.
     -623    1    1    2    0    0 -0.21088185624E-03  0.95711727889E-04  0.77644426622E-04  0.17130000000E+03  0.17130000000E+03 0.  1.
      622    1    1    2    0    0 -0.26192900682E-03 -0.14724118645E-02  0.39757093069E+01  0.39757378850E+01  0.15000000000E-01 0.  1.
</event>
<event>
 5   0  0.2306700E+09  0.9118800E+02  0.7818608E-02  0.1180000E+00
       11   -1    0    0    0    0  0.00000000000E+00  0.00000000000E+00  0.39999999673E+01  0.40000000000E+01  0.51109989000E-03 0. -1.
     -623   -1    0    0    0    0  0.00000000000E+00  0.00000000000E+00  0.12525980253E-10  0.17130000000E+03  0.17130000000E+03 0.  1.
       11    1    1    2    0    0  0.54327099487E-03 -0.50685739485E-03  0.28690263172E-02  0.30074213039E-02  0.51109989000E-03 0. -1.
     -623    1    1    2    0    0 -0.31259324580E-03 -0.51183017568E-03  0.16664620903E-03  0.17130000000E+03  0.17130000000E+03 0.  1.
      622    1    1    2    0    0 -0.23067774900E-03  0.10186875706E-02  0.39969642957E+01  0.39969925784E+01  0.15000000000E-01 0. -1.
</event>
<event>
 5   0  0.2306700E+09  0.9118800E+02  0.7818608E-02  0.1180000E+00
       11   -1    0    0    0    0  0.00000000000E+00  0.00000000000E+00  0.39999999673E+01  0.40000000000E+01  0.51109989000E-03 0. -1.
     -623   -1    0    0    0    0  0.00000000000E+00  0.00000000000E+00  0.12525980253E-10  0.17130000000E+03  0.17130000000E+03 0.  1.
       11    1    1    2    0    0 -0.46984596334E-02  0.31825484949E-01  0.94674793583E+00  0.94729449076E+00  0.51109989000E-03 0. -1.
     -623    1    1    2    0    0  0.40529774114E-02 -0.93808975430E-02  0.66626188135E-03  0.17130000031E+03  0.17130000000E+03 0.  1.
      622    1    1    2    0    0  0.64548222196E-03 -0.22444587406E-01  0.30525857697E+01  0.30527052031E+01  0.15000000000E-01 0. -1.
</event>
<event>
 5   0  0.2306700E+09  0.9118800E+02  0.7818608E-02  0.1180000E+00
       11   -1    0    0    0    0  0.00000000000E+00  0.00000000000E+00  0.39999999673E+01  0.40000000000E+01  0.51109989000E-03 0. -1.
     -623   -1    0    0    0    0  0.00000000000E+00  0.00000000000E+00  0.12525980253E-10  0.17130000000E+03  0.17130000000E+03 0. -1.
       11    1    1    2    0    0  0.13119420686E-02  0.31979080455E-02  0.20689622541E+00  0.20692572851E+00  0.51109989000E-03 0. -1.
     -623    1    1    2    0    0  0.55467946998E-03 -0.59409549844E-03  0.60484853195E-04  0.17130000000E+03  0.17130000000E+03 0. -1.
      622    1    1    2    0    0 -0.18666215390E-02 -0.26038125466E-02  0.37930432603E+01  0.37930742728E+01  0.15000000000E-01 0. -1.
</event>
<event>
 5   0  0.2306700E+09  0.9118800E+02  0.7818608E-02  0.1180000E+00
       11   -1    0    0    0    0  0.00000000000E+00  0.00000000000E+00  0.39999999673E+01  0.40000000000E+01  0.51109989000E-03 0.  1.
     -623   -1    0    0    0    0  0.00000000000E+00  0.00000000000E+00  0.12525980253E-10  0.17130000000E+03  0.17130000000E+03 0.  1.
       11    1    1    2    0    0 -0.17684730722E-02  0.18413141790E-03  0.17514607548E-01  0.17612044172E-01  0.51109989000E-03 0. -1.
     -623    1    1    2    0    0  0.17662708693E-03 -0.38892265987E-03  0.12597746021E-03  0.17130000000E+03  0.17130000000E+03 0.  1.
      622    1    1    2    0    0  0.15918459852E-02  0.20479124196E-03  0.39823593824E+01  0.39823879552E+01  0.15000000000E-01 0.  1.
</event>
<event>
 5   0  0.2306700E+09  0.9118800E+02  0.7818608E-02  0.1180000E+00
       11   -1    0    0    0    0  0.00000000000E+00  0.00000000000E+00  0.39999999673E+01  0.40000000000E+01  0.51109989000E-03 0. -1.
     -623   -1    0    0    0    0  0.00000000000E+00  0.00000000000E+00  0.12525980253E-10  0.17130000000E+03  0.17130000000E+03 0. -1.
       11    1    1    2    0    0  0.93782821120E-03  0.22790483864E-02  0.55968274969E-01  0.56024839218E-01  0.51109989000E-03 0. -1.
     -623    1    1    2    0    0  0.13301860329E-02  0.80929187152E-03  0.86924631060E-04  0.17130000001E+03  0.17130000000E+03 0. -1.
      622    1    1    2    0    0 -0.22680142450E-02 -0.30883402585E-02  0.39439447705E+01  0.39439751564E+01  0.15000000000E-01 0. -1.
</event>
<event>
 5   0  0.2306700E+09  0.9118800E+02  0.7818608E-02  0.1180000E+00
       11   -1    0    0    0    0  0.00000000000E+00  0.00000000000E+00  0.39999999673E+01  0.40000000000E+01  0.51109989000E-03 0. -1.
     -623   -1    0    0    0    0  0.00000000000E+00  0.00000000000E+00  0.12525980253E-10  0.17130000000E+03  0.17130000000E+03 0. -1.
       11    1    1    2    0    0  0.21066906740E-02 -0.31333607775E-02  0.18550667296E-01  0.18937913676E-01  0.51109989000E-03 0. -1.
     -623    1    1    2    0    0 -0.22919752391E-02  0.53040817051E-03  0.41634455800E-03  0.17130000002E+03  0.17130000000E+03 0. -1.
      622    1    1    2    0    0  0.18528456514E-03  0.26029526070E-02  0.39810329555E+01  0.39810620697E+01  0.15000000000E-01 0. -1.
</event>
<event>
 5   0  0.2306700E+09  0.9118800E+02  0.7818608E-02  0.1180000E+00
       11   -1    0    0    0    0  0.00000000000E+00  0.00000000000E+00  0.39999999673E+01  0.40000000000E+01  0.51109989000E-03 0.  1.
     -623   -1    0    0    0    0  0.00000000000E+00  0.00000000000E+00  0.12525980253E-10  0.17130000000E+03  0.17130000000E+03 0. -1.
       11    1    1    2    0    0  0.56083230220E-03  0.16053868824E-03  0.42782487469E-01  0.42789516972E-01  0.51109989000E-03 0.  1.
     -623    1    1    2    0    0 -0.31383867363E-03 -0.39755642334E-03  0.35441640857E-04  0.17130000000E+03  0.17130000000E+03 0. -1.
      622    1    1    2    0    0 -0.24699362946E-03  0.23701773397E-03  0.39571820269E+01  0.39572104709E+01  0.15000000000E-01 0.  1.
</event>
<event>
 5   0  0.2306700E+09  0.9118800E+02  0.7818608E-02  0.1180000E+00
       11   -1    0    0    0    0  0.00000000000E+00  0.00000000000E+00  0.39999999673E+01  0.40000000000E+01  0.51109989000E-03 0. -1.
     -623   -1    0    0    0    0  0.00000000000E+00  0.00000000000E+00  0.12525980253E-10  0.17130000000E+03  0.17130000000E+03 0. -1.
       11    1    1    2    0    0  0.10563313928E-01 -0.24267297697E-02  0.11250053910E+01  0.11250577157E+01  0.51109989000E-03 0. -1.
     -623    1    1    2    0    0 -0.18746752088E-03  0.46565087396E-03  0.11081702364E-03  0.17130000000E+03  0.17130000000E+03 0. -1.
      622    1    1    2    0    0 -0.10375846407E-01  0.19610788957E-02  0.28748837594E+01  0.28749422836E+01  0.15000000000E-01 0.  1.
</event>
<event>
 5   0  0.2306700E+09  0.9118800E+02  0.7818608E-02  0.1180000E+00
       11   -1    0    0    0    0  0.00000000000E+00  0.00000000000E+00  0.39999999673E+01  0.40000000000E+01  0.51109989000E-03 0. -1.
     -623   -1    0    0    0    0  0.00000000000E+00  0.00000000000E+00  0.12525980253E-10  0.17130000000E+03  0.17130000000E+03 0. -1.
       11    1    1    2    0    0 -0.81101421508E-03  0.20546934678E-03  0.16170246460E+00  0.16170543664E+00  0.51109989000E-03 0. -1.
     -623    1    1    2    0    0  0.85452623112E-04  0.18562928538E-04  0.32324546437E-04  0.17130000000E+03  0.17130000000E+03 0. -1.
      622    1    1    2    0    0  0.72556159197E-03 -0.22403227532E-03  0.38382651782E+01  0.38382945633E+01  0.15000000000E-01 0. -1.
</event>
<event>
 5   0  0.2306700E+09  0.9118800E+02  0.7818608E-02  0.1180000E+00
       11   -1    0    0    0    0  0.00000000000E+00  0.00000000000E+00  0.39999999673E+01  0.40000000000E+01  0.51109989000E-03 0. -1.
     -623   -1    0    0    0    0  0.00000000000E+00  0.00000000000E+00  0.12525980253E-10  0.17130000000E+03  0.17130000000E+03 0. -1.
       11    1    1    2    0    0  0.68523510643E-03 -0.14893260856E-02  0.71364596213E-01  0.71385253757E-01  0.51109989000E-03 0. -1.
     -623    1    1    2    0    0  0.15164111943E-03  0.32834893417E-03  0.49522127969E-04  0.17130000000E+03  0.17130000000E+03 0. -1.
      622    1    1    2    0    0 -0.83687622586E-03  0.11609771514E-02  0.39285858490E+01  0.39286147459E+01  0.15000000000E-01 0. -1.
</event>
<event>
 5   0  0.2306700E+09  0.9118800E+02  0.7818608E-02  0.1180000E+00
       11   -1    0    0    0    0  0.00000000000E+00  0.00000000000E+00  0.39999999673E+01  0.40000000000E+01  0.51109989000E-03 0. -1.
     -623   -1    0    0    0    0  0.00000000000E+00  0.00000000000E+00  0.12525980253E-10  0.17130000000E+03  0.17130000000E+03 0.  1.
       11    1    1    2    0    0 -0.15474515171E-02  0.67923193673E-02  0.53322995998E-01  0.53778558310E-01  0.51109989000E-03 0. -1.
     -623    1    1    2    0    0 -0.56257437675E-03 -0.52593308972E-03  0.48957998468E-03  0.17130000000E+03  0.17130000000E+03 0.  1.
      622    1    1    2    0    0  0.21100258939E-02 -0.62663862775E-02  0.39461873917E+01  0.39462214396E+01  0.15000000000E-01 0. -1.
</event>
<event>
 5   0  0.2306700E+09  0.9118800E+02  0.7818608E-02  0.1180000E+00
       11   -1    0    0    0    0  0.00000000000E+00  0.00000000000E+00  0.39999999673E+01  0.40000000000E+01  0.51109989000E-03 0. -1.
     -623   -1    0    0    0    0  0.00000000000E+00  0.00000000000E+00  0.12525980253E-10  0.17130000000E+03  0.17130000000E+03 0.  1.
       11    1    1    2    0    0 -0.35446929660E-03  0.31696712096E-02  0.10919429532E+01  0.10919477308E+01  0.51109989000E-03 0. -1.
     -623    1    1    2    0    0 -0.10392696800E-03  0.25133128023E-03  0.45479466971E-04  0.17130000000E+03  0.17130000000E+03 0.  1.
      622    1    1    2    0    0  0.45839626460E-03 -0.34210024898E-02  0.29080115350E+01  0.29080522693E+01  0.15000000000E-01 0. -1.
</event>
<event>
 5   0  0.2306700E+09  0.9118800E+02  0.7818608E-02  0.1180000E+00
       11   -1    0    0    0    0  0.00000000000E+00  0.00000000000E+00  0.39999999673E+01  0.40000000000E+01  0.51109989000E-03 0.  1.
     -623   -1    0    0    0    0  0.00000000000E+00  0.00000000000E+00  0.12525980253E-10  0.17130000000E+03  0.17130000000E+03 0.  1.
       11    1    1    2    0    0 -0.15581221260E-02  0.38666904520E-02  0.39134510120E+00  0.39136763854E+00  0.51109989000E-03 0.  1.
     -623    1    1    2    0    0  0.27242552665E-03  0.32085040599E-03  0.56339325913E-04  0.17130000000E+03  0.17130000000E+03 0.  1.
      622    1    1    2    0    0  0.12856965989E-02 -0.41875408585E-02  0.36085985334E+01  0.36086323675E+01  0.15000000000E-01 0.  1.
</event>
<event>
 5   0  0.2306700E+09  0.9118800E+02  0.7818608E-02  0.1180000E+00
       11   -1    0    0    0    0  0.00000000000E+00  0.00000000000E+00  0.39999999673E+01  0.40000000000E+01  0.51109989000E-03 0. -1.
     -623   -1    0    0    0    0  0.00000000000E+00  0.00000000000E+00  0.12525980253E-10  0.17130000000E+03  0.17130000000E+03 0.  1.
       11    1    1    2    0    0 -0.13073414062E-02  0.84470619807E-03  0.20590228492E-01  0.20655299566E-01  0.51109989000E-03 0. -1.
     -623    1    1    2    0    0  0.32638598649E-03  0.12981014262E-03  0.93550143187E-04  0.17130000000E+03  0.17130000000E+03 0.  1.
      622    1    1    2    0    0  0.98095541975E-03 -0.97451634069E-03  0.39793161887E+01  0.39793447000E+01  0.15000000000E-01 0. -1.
</event>
<event>
 5   0  0.2306700E+09  0.9118800E+02  0.7818608E-02  0.1180000E+00
       11   -1    0    0    0    0  0.00000000000E+00  0.00000000000E+00  0.39999999673E+01  0.40000000000E+01  0.51109989000E-03 0. -1.
     -623   -1    0    0    0    0  0.00000000000E+00  0.00000000000E+00  0.12525980253E-10  0.17130000000E+03  0.17130000000E+03 0. -1.
       11    1    1    2    0    0  0.82844844188E-03 -0.43151612717E-02  0.82939217992E+00  0.82940397653E+00  0.51109989000E-03 0. -1.
     -623    1    1    2    0    0 -0.17252350405E-03 -0.27527515569E-03  0.50637707864E-04  0.17130000000E+03  0.17130000000E+03 0. -1.
      622    1    1    2    0    0 -0.65592493769E-03  0.45904364276E-02  0.31705571528E+01  0.31705960262E+01  0.15000000000E-01 0. -1.
</event>
</LesHouchesEvents>
