<LesHouchesEvents version="1.0">
<header>
<!--
#*********************************************************************
#                                                                    *
#                       MadGraph/MadEvent                            *
#                                                                    *
#                      The new web generation                        *
#                                                                    *
#                   http://madgraph.hep.uiuc.edu                     *
#                   http://madgraph.phys.ucl.ac.be                   *
#                   http://madgraph.roma2.infn.it                    *
#                                                                    *
#            CP3 team                      Tim Stelzer               *
#      Universite de Louvain          University of Illinois         *
#                                                                    *
#....................................................................*
#                                                                    *
# This file contains all the information necessary to reproduce      *
# the events generated:                                              *
#                                                                    *
# 1. software version                                                *
# 2. proc_card.dat      : code generation info including model       *
# 3. param_card.dat     : model primary parameters in the LH format  *
# 4. run_card.dat       : running parameters (collider and cuts)     *
# 5. pythia_card.dat    : present only in the pythia event file      *
# 6. pgs_card.dat       : present only in the pgs event file         *
#                                                                    *
#                                                                    *
#*********************************************************************
-->
<MGVersion>
# MG/ME version    : 4.4.17
# madgraph version : 4.4.2
# template version : 2.4.8
# helas version    : 3.5
# model version    : usrmod_1.0.4
</MGVersion>
<MGProcCard>
#*********************************************************************
#                        MadGraph/MadEvent                           *
#                   http://madgraph.hep.uiuc.edu                     *
#                                                                    *
#                          proc_card.dat                             *
#                                                                    *
# This file is used to generate the code for a specific process.     *
# Some notation/conventions:                                         *
#                                                                    *
# 0. Do not modify the TAGS and their order.                         *
# 1. hash/pound is a comment.                                        *
# 2. The number after the @ is used as an identifier for the class   *
#    of processes. It can be any positive integer.                   *
# 3. The number of lines for the max couplings depends on how many   *
#    different classes of couplings are present in the model         *
#    In the SM these are just two: QED (which include EW) and QCD    *
# 4. Write "end_coup" after  the couplings list,                     *
#    to tell MG that the couplings input is over.                    *
# 5. Write "done" after the proc list to                             *
#    to tell MG that the proc input is over.                         *
# 6. Some model names available at present are:                      *
#    sm     =  Standard Model                                        *
#    smckm =  Standard Model with Cabibbo matrix                     *
#    mssm   =  Minimal Supersymmetric Standard Model                 *
#    2hdm   =  Generic Two Higgs Doublet model                       *
#    heft   =  Higgs EFT (+Standard Model)                           *
#    usrmod =  User Model                                            *
# 7. Don't leave spaces between the particles name in the            *
#    definition of the multiparticles.                               *
#*********************************************************************
#*********************************************************************
# Process(es) requested : mg2 input                                  *
#*********************************************************************
# Begin PROCESS # This is TAG. Do not modify this line
e- N+ > e- N+ x      # Radiative
QCD=0             # Max QCD couplings
QED=1             # Max QED couplings
QFD=0 
QND=1
QWD=9
QDS=2
end_coup           # End the couplings input
done               # this tells MG there are no more procs
# End PROCESS  # This is TAG. Do not modify this line
#*********************************************************************
# Model information                                                  *
#*********************************************************************
# Begin MODEL  # This is TAG. Do not modify this line
fixedAP2     
# End   MODEL  # This is TAG. Do not modify this line
#*********************************************************************
# Start multiparticle definitions                                    *
#*********************************************************************
# Begin MULTIPARTICLES # This is TAG. Do not modify this line
P uu~cc~dd~ss~gf+f-
J uu~cc~dd~ss~gf+f-
L+ e+mu+
L- e-mu-
vl vevm
vl~ ve~vm~
# End  MULTIPARTICLES # This is TAG. Do not modify this line
</MGProcCard>
<slha>
#*********************************************************************
#                        MadGraph/MadEvent                           *
#                   http://madgraph.hep.uiuc.edu                     *
#                                                                    *
#                         param_card.dat                             *
#                                                                    *
#   Les Houches friendly file for the SM parameters of MadGraph      *
#        Spectrum and decay widths produced by SMCalc                *
#                                                                    *
#  Please note the following IMPORTANT issues:                       *
#                                                                    *
# 0. REFRAIN from editing this file by hand! Some of the parame-     *
#    ters are not independent                                        *
#    (such as G_Fermi, alpha_em, sin(theta_W),MZ,MW) and serious     *
#    problems might be encountered (such as violation of unitarity   *
#    or gauge invariance).  Always use a calculator.                 *
#                                                                    *
# 1. alpha_S(MZ) has been used in the calculation of the parameters  *
#    but, for consistency, it will be reset by madgraph to the       *
#    value expected IF the pdfs for collisions with hadrons are      *
#    used. This value is KEPT by madgraph when no pdf are used       *
#    lpp(i)=0 .                                                      *
#                                                                    *
#  2. Values of the charm and bottom kinematic (pole) masses are     *
#     those used in the matrix elements and phase space UNLESS they  *
#     are set to ZERO from the start in the model (particles.dat)    *
#     This happens, for example,  when using 5-flavor QCD where      *
#     charm and bottom are treated as partons in the initial state   *
#     and a zero mass might be hardwired in the model definition.    *
#                                                                    *
##********************************************************************
Block MODSEL # Select Model
     0   1   #  0 1 = SM
Block SMINPUTS      # Standard Model inputs
     1         1.27900000E+02   # alpha_em(MZ)(-1) SM MSbar
     2         1.16600000E-05   # G_Fermi
     3         1.18000000E-01   # alpha_s(MZ) SM MSbar
     4         9.15445065E+01   # Z mass (as input parameter)
Block MGYUKAWA     # Yukawa masses m/v=y/sqrt(2)
#    PDG          YMASS
     5         4.20000000E+00   # mbottom for the Yukawa  y_b
     4         1.25000000E+00   # mcharm  for the Yukawa  y_c
     6         1.74300000E+02   # mtop    for the Yukawa  y_t
    15         1.77700000E+00   # mtau    for the Yukawa  y_ta
Block MGCKM     # CKM elements for MadGraph
     1   1     9.75000000E-01   # Vud for Cabibbo matrix
#===========================================================
# QUANTUM NUMBERS OF NEW STATE(S) (NON SM PDG CODE) IF ANY
# (see below for masses and decay tables)
# These blocks are automatically created by the MadGraph
# qnumbers.pl script from the particles.dat model file
#===========================================================
BLOCK QNUMBERS 611 # f-
         1  -3 # 3 times electric charge
         2  2 # number of spin states (2S+1)
         3  1 # colour rep (1: singlet, 3: triplet, 8: octet)
         4  1 # Particle/Antiparticle distinction (0=own anti)
BLOCK QNUMBERS 622 # x
         1  0 # 3 times electric charge
         2  3 # number of spin states (2S+1)
         3  1 # colour rep (1: singlet, 3: triplet, 8: octet)
         4  0 # Particle/Antiparticle distinction (0=own anti)
BLOCK QNUMBERS 623 # N-
         1  0 # 3 times electric charge
         2  2 # number of spin states (2S+1)
         3  1 # colour rep (1: singlet, 3: triplet, 8: octet)
         4  1 # Particle/Antiparticle distinction (0=own anti)
# END of QNUMBERS blocks
#===========================================================
Block MASS      #  Mass spectrum (kinematic masses)
#       PDG       Mass
         4     1.40000000E+00   # charm    pole mass
         5     4.20000000E+00   # bottom   pole mass
         6     1.74300000E+02   # top      pole mass
        11     0.51109989E-03   # electron mass
        13     0.10565837E+00   # muon     mass
        15     1.77700000E+00   # tau      mass
        23     9.15445065E+01   # Z        mass
        24     8.02673592E+01   # W        mass
        25     1.20000000E+02   # H        mass
       611 0.2 # FMASS
       622 0.6 # APMASS
       623     1.71300000e+02   # HPMASS (tungsten)
#            PDG       Width
DECAY       611     0.00000000e+00   # ELWIDTH
DECAY 622 0.01821981315 # APWIDTH
DECAY       623     0.00000000e+00   # HPWIDTH
DECAY         6     1.51013490E+00   # top width
DECAY        23     2.44639985E+00   # Z   width
DECAY        24     2.03535570E+00   # W   width
DECAY        25     6.79485838E-03   # H   width
#        BR           NDA        ID1       ID2
     7.00588389E-02    2           4        -4   # BR( H -> c  cbar  )
     7.61074375E-01    2           5        -5   # BR( H -> b  bbar  )
     0.00000000E+00    2           6        -6   # BR( H -> t  tbar  )
     3.65529942E-02    2          15       -15   # BR( H -> tau- tau+)
     5.84716539E-03    2          23        23   # BR( H -> Z   Z^(*))
     6.31545979E-02    2          24       -24   # BR( H -> W   W^(*))
     2.55499652E-02    2          21        21   # BR( H -> g   g    )
     1.20906932E-03    2          22        22   # BR( H -> A   A    )
BLOCK MGUSER
         1     1.00000000e-00   # epsilon ,mixing coefficient
         2     74.0000000e+00   # Znuc    ,nuclear charge
</slha>
<MGRunCard>
#*********************************************************************
#                       MadGraph/MadEvent                            *
#                  http://madgraph.hep.uiuc.edu                      *
#                                                                    *
#                        run_card.dat                                *
#                                                                    *
#  This file is used to set the parameters of the run.               *
#                                                                    *
#  Some notation/conventions:                                        *
#                                                                    *
#   Lines starting with a '# ' are info or comments                  *
#                                                                    *
#   mind the format:   value    = variable     ! comment             *
#*********************************************************************
#
#*******************                                                 
# Running parameters
#*******************                                                 
#                                                                    
#*********************************************************************
# Tag name for the run (one word)                                    *
#*********************************************************************
  'HPS'     = run_tag ! name of the run 
#*********************************************************************
# Run to generate the grid pack                                      *
#*********************************************************************
  .false.     = gridpack  !True = setting up the grid pack
#*********************************************************************
# Number of events and rnd seed                                      *
#*********************************************************************
   1000      = nevents ! Number of unweighted events requested 
188715 = iseed ! rnd seed (0=assigned automatically=default))
#*********************************************************************
# Collider type and energy                                           *
#*********************************************************************
        0     = lpp1  ! beam 1 type (0=NO PDF)
        0     = lpp2  ! beam 2 type (0=NO PDF)
4 = ebeam1  ! beam 1 energy in GeV
    171.3    = ebeam2  ! beam 2 energy in GeV
    0.000511  = mbeam1  ! beam 1 energy in GeV
    171.3    = mbeam2  ! beam 2 energy in GeV
#*********************************************************************
# Beam polarization from -100 (left-handed) to 100 (right-handed)    *
#*********************************************************************
        0     = polbeam1 ! beam polarization for beam 1
        0     = polbeam2 ! beam polarization for beam 2
#*********************************************************************
# PDF CHOICE: this automatically fixes also alpha_s and its evol.    *
#*********************************************************************
 'cteq6l1'    = pdlabel     ! PDF set                                     
#*********************************************************************
# Renormalization and factorization scales                           *
#*********************************************************************
 F        = fixed_ren_scale  ! if .true. use fixed ren scale
 F        = fixed_fac_scale  ! if .true. use fixed fac scale
 91.1880  = scale            ! fixed ren scale
 91.1880  = dsqrt_q2fact1    ! fixed fact scale for pdf1
 91.1880  = dsqrt_q2fact2    ! fixed fact scale for pdf2
 1        = scalefact        ! scale factor for event-by-event scales
 F        = fixed_couplings  ! if .false. calc. coupl. for every event
#*********************************************************************
# Matching - Warning! ickkw > 0 is still beta
#*********************************************************************
 0        = ickkw            ! 0 no matching, 1 MLM, 2 CKKW matching
#*********************************************************************
#                                                                    
#**********************************
32.9311829414 = bwcutoff*Gamma)
#**********************************
32.9311829414 = bwcutoff
#*******************                                                 
# Fixed-Target Cuts
#*******************                                                 
#
 0.0 = ef        ! minimum E for all f's
 100.0 = efmax     ! maximum E for all f's
 0.0 = thetafmin ! min angle for both f's
 100.0 = thetafmax ! max angle for both f's
 0.0 = thetaxfmin ! min angle (x direction) for both f's
 100.0 = thetaxfmax ! max angle (x direction) for both f's 
 0.0 = thetayfmin ! min angle (y direction) for both f's
 100.0 = thetayfmax ! max angle (y direction) for both f's 
 0.0 = xthetaxfmin ! min angle (x direction) for >=1 f's
 100.0 = xthetaxfmax ! max angle (x direction) for >=1 f's 
 0.0 = xthetayfmin ! min angle (y direction) for >=1 f's
 100.0 = xthetayfmax ! max angle (y direction) for >=1 f's 
 0.0 = mmff      ! min invariant mass of f+f- lepton pair
 100.0 = mmffmax  ! max invariant mass of f+f- lepton pair
 0.0 = xef       ! min. energy for at least one f
 0.0 = xthetaf   ! minimum angle for at least one f
 0.0 = eftot     ! minimum energy for the two f's
 0d0 = efrat     ! min. ratio Emin/Emax for the two f's
 0.0  = el     !!! 0.2 = el  !!! was 0.05 with normal cuts! minimum E for the charged leptons 
 0.0  = drll  !!! was 0.1  ! min distance between leptons 
 0.0  = mmll    ! min invariant mass of l+l- (same flavour) lepton pair
#
#*******************                                                 
# Standard Cuts
#*******************                                                 
#                                                                    
#*********************************************************************
# Minimum and maximum pt's                                           *
#*********************************************************************
  0  = ptj       ! minimum pt for the jets 
  0  = ptb       ! minimum pt for the b 
  0  = pta       ! minimum pt for the photons 
  0  = ptl       ! minimum pt for the charged leptons 
  0  = misset    ! minimum missing Et (sum of neutrino's momenta)
  0  = ptheavy   ! minimum pt for one heavy final state
 1.0 = ptonium   ! minimum pt for the quarkonium states
 1d5 = ptjmax    ! maximum pt for the jets
 1d5 = ptbmax    ! maximum pt for the b
 1d5 = ptamax    ! maximum pt for the photons
 1d9 = ptlmax    ! maximum pt for the charged leptons
 1d9 = missetmax ! maximum missing Et (sum of neutrino's momenta)
#*********************************************************************
# Minimum and maximum E's (in the lab frame)                         *
#*********************************************************************
  0  = ej     ! minimum E for the jets 
  0  = eb     ! minimum E for the b 
  0  = ea     ! minimum E for the photons 
 1d5  = ejmax ! maximum E for the jets
 1d5  = ebmax ! maximum E for the b
 1d5  = eamax ! maximum E for the photons
 1.2  = elmax ! maximum E for the charged leptons
#*********************************************************************
# Maximum and minimum rapidity                                       *
#*********************************************************************
 1d5  = etaj    ! max rap for the jets 
 1d5  = etab    ! max rap for the b 
 1d5  = etaa    ! max rap for the photons 
 1d5  = etal     !!! 1(2) wth cuts ! max rap for the charged leptons 
 1d5  = etafl     !!! 0(1) wth cuts ! max rap for the charged leptons 
 0.0  = etaonium ! max rap for the quarkonium states
 0d0  = etajmin ! min rap for the jets
 0d0  = etabmin ! min rap for the b
 0d0  = etaamin ! min rap for the photons
 0d0  = etalmin ! main rap for the charged lepton
#*********************************************************************
# Minimum and maximum DeltaR distance                                *
#*********************************************************************
 0   = drjj    ! min distance between jets 
 0   = drbb    ! min distance between b's 
 0   = draa    ! min distance between gammas 
 0   = drbj    ! min distance between b and jet 
 0   = draj    ! min distance between gamma and jet 
 0   = drjl    ! min distance between jet and lepton 
 0   = drab    ! min distance between gamma and b 
 0   = drbl    ! min distance between b and lepton 
 0   = dral    ! min distance between gamma and lepton 
 1d2 = drjjmax ! max distance between jets
 1d2 = drbbmax ! max distance between b's
 1d9 = drllmax ! max distance between leptons
 1d2 = draamax ! max distance between gammas
 1d2 = drbjmax ! max distance between b and jet
 1d2 = drajmax ! max distance between gamma and jet
 1d2 = drjlmax ! max distance between jet and lepton
 1d2 = drabmax ! max distance between gamma and b
 1d2 = drblmax ! max distance between b and lepton
 1d2 = dralmax ! maxdistance between gamma and lepton
#*********************************************************************
# Minimum and maximum invariant mass for pairs                       *
#*********************************************************************
 0   = mmjj    ! min invariant mass of a jet pair 
 0   = mmbb    ! min invariant mass of a b pair 
 0   = mmaa    ! min invariant mass of gamma gamma pair
 1d5 = mmjjmax ! max invariant mass of a jet pair
 1d5 = mmbbmax ! max invariant mass of a b pair
 1d5 = mmaamax ! max invariant mass of gamma gamma pair
 1d5 = mmllmax ! max invariant mass of l+l- (same flavour) lepton pair
#*********************************************************************
# Minimum and maximum invariant mass for all letpons                 *
#*********************************************************************
 0   = mmnl    ! min invariant mass for all letpons (l+- and vl) 
 1d9 = mmnlmax ! max invariant mass for all letpons (l+- and vl) 
#*********************************************************************
# Inclusive cuts                                                     *
#*********************************************************************
 0  = xptj ! minimum pt for at least one jet  
 0  = xptb ! minimum pt for at least one b 
 0  = xpta ! minimum pt for at least one photon 
 0  = xptl ! minimum pt for at least one charged lepton 
#*********************************************************************
# Control the pt's of the jets sorted by pt                          *
#*********************************************************************
 0   = ptj1min ! minimum pt for the leading jet in pt
 0   = ptj2min ! minimum pt for the second jet in pt
 0   = ptj3min ! minimum pt for the third jet in pt
 0   = ptj4min ! minimum pt for the fourth jet in pt
 1d5 = ptj1max ! maximum pt for the leading jet in pt 
 1d5 = ptj2max ! maximum pt for the second jet in pt
 1d5 = ptj3max ! maximum pt for the third jet in pt
 1d5 = ptj4max ! maximum pt for the fourth jet in pt
 0   = cutuse  ! reject event if fails any (0) / all (1) jet pt cuts
#*********************************************************************
# Control the Ht(k)=Sum of k leading jets                            *
#*********************************************************************
 0   = htjmin ! minimum jet HT=Sum(jet pt)
 1d5 = htjmax ! maximum jet HT=Sum(jet pt)
 0   = ht2min ! minimum Ht for the two leading jets
 0   = ht3min ! minimum Ht for the three leading jets
 0   = ht4min ! minimum Ht for the four leading jets
 1d5 = ht2max ! maximum Ht for the two leading jets
 1d5 = ht3max ! maximum Ht for the three leading jets
 1d5 = ht4max ! maximum Ht for the four leading jets
#*********************************************************************
# WBF cuts                                                           *
#*********************************************************************
 0   = xetamin ! minimum rapidity for two jets in the WBF case  
 0   = deltaeta ! minimum rapidity for two jets in the WBF case 
#*********************************************************************
# maximal pdg code for quark to be considered as a jet               *
# otherwise b cuts are applied                                       *
#*********************************************************************
 4 = maxjetflavor
#*********************************************************************
# Jet measure cuts                                                   *
#*********************************************************************
 0   = xqcut   ! minimum kt jet measure between partons
#*********************************************************************
</MGRunCard>
<MGGenerationInfo>
#  Number of Events        :        1000
#  Integrated weight (pb)  :  .10147E+07
#  Truncated wgt (pb)      :  .67820E+03
#  Unit wgt                :  .10147E+04
</MGGenerationInfo>
</header>
<init>
       11     -623  0.40000000000E+01  0.17130000000E+03 0 0     0     0 3  1
  0.10179906971E+07  0.88681667163E+04  0.10147000000E+04   0
</init>
<event>
 5   0  0.1014700E+04  0.9118800E+02  0.7818608E-02  0.1180000E+00
       11   -1    0    0    0    0  0.00000000000E+00  0.00000000000E+00  0.39999999673E+01  0.40000000000E+01  0.51109989000E-03 0.  1.
     -623   -1    0    0    0    0  0.00000000000E+00  0.00000000000E+00  0.12525980253E-10  0.17130000000E+03  0.17130000000E+03 0.  1.
       11    1    1    2    0    0  0.22746714856E-01  0.14944697574E-01  0.52928952456E-01  0.59518839484E-01  0.51109989000E-03 0.  1.
     -623    1    1    2    0    0 -0.63145571417E-01 -0.63703881479E-01  0.53084323275E-01  0.17130003171E+03  0.17130000000E+03 0.  1.
      622    1    1    2    0    0  0.40398856561E-01  0.48759183905E-01  0.38939866916E+01  0.39404494515E+01  0.60000000000E+00 0.  1.
</event>
<event>
 5   0  0.1014700E+04  0.9118800E+02  0.7818608E-02  0.1180000E+00
       11   -1    0    0    0    0  0.00000000000E+00  0.00000000000E+00  0.39999999673E+01  0.40000000000E+01  0.51109989000E-03 0.  1.
     -623   -1    0    0    0    0  0.00000000000E+00  0.00000000000E+00  0.12525980253E-10  0.17130000000E+03  0.17130000000E+03 0. -1.
       11    1    1    2    0    0  0.64623827064E-01  0.12277189886E+00  0.29139880375E+00  0.32274247044E+00  0.51109989000E-03 0.  1.
     -623    1    1    2    0    0  0.48348295904E-01 -0.17491351875E+00  0.82875427646E-01  0.17130011617E+03  0.17130000000E+03 0. -1.
      622    1    1    2    0    0 -0.11297212297E+00  0.52141619890E-01  0.36257257360E+01  0.36771413573E+01  0.60000000000E+00 0.  1.
</event>
<event>
 5   0  0.1014700E+04  0.9118800E+02  0.7818608E-02  0.1180000E+00
       11   -1    0    0    0    0  0.00000000000E+00  0.00000000000E+00  0.39999999673E+01  0.40000000000E+01  0.51109989000E-03 0.  1.
     -623   -1    0    0    0    0  0.00000000000E+00  0.00000000000E+00  0.12525980253E-10  0.17130000000E+03  0.17130000000E+03 0. -1.
       11    1    1    2    0    0  0.31445416958E-01 -0.62966707971E-01  0.66028761307E+00  0.66402832301E+00  0.51109989000E-03 0.  1.
     -623    1    1    2    0    0 -0.91435844385E-02 -0.27525025179E-01  0.59478273040E-01  0.17130001278E+03  0.17130000000E+03 0. -1.
      622    1    1    2    0    0 -0.22301832520E-01  0.90491733150E-01  0.32802340813E+01  0.33359588956E+01  0.60000000000E+00 0.  1.
</event>
<event>
 5   0  0.1014700E+04  0.9118800E+02  0.7818608E-02  0.1180000E+00
       11   -1    0    0    0    0  0.00000000000E+00  0.00000000000E+00  0.39999999673E+01  0.40000000000E+01  0.51109989000E-03 0. -1.
     -623   -1    0    0    0    0  0.00000000000E+00  0.00000000000E+00  0.12525980253E-10  0.17130000000E+03  0.17130000000E+03 0. -1.
       11    1    1    2    0    0  0.15270488629E+00  0.10143520529E-01  0.30831055528E+00  0.34420536461E+00  0.51109989000E-03 0. -1.
     -623    1    1    2    0    0 -0.10508152305E-01  0.27970291965E-01  0.88499764102E-01  0.17130002547E+03  0.17130000000E+03 0. -1.
      622    1    1    2    0    0 -0.14219673399E+00 -0.38113812494E-01  0.36031896480E+01  0.36557691685E+01  0.60000000000E+00 0. -1.
</event>
<event>
 5   0  0.1014700E+04  0.9118800E+02  0.7818608E-02  0.1180000E+00
       11   -1    0    0    0    0  0.00000000000E+00  0.00000000000E+00  0.39999999673E+01  0.40000000000E+01  0.51109989000E-03 0.  1.
     -623   -1    0    0    0    0  0.00000000000E+00  0.00000000000E+00  0.12525980253E-10  0.17130000000E+03  0.17130000000E+03 0. -1.
       11    1    1    2    0    0 -0.88516817927E-01 -0.37884295765E-01  0.11030410446E+00  0.14641619995E+00  0.51109989000E-03 0.  1.
     -623    1    1    2    0    0  0.36398666788E-01  0.10202104178E+00  0.84061176141E-01  0.17130005487E+03  0.17130000000E+03 0. -1.
      622    1    1    2    0    0  0.52118151139E-01 -0.64136746014E-01  0.38056346868E+01  0.38535289272E+01  0.60000000000E+00 0.  1.
</event>
<event>
 5   0  0.1014700E+04  0.9118800E+02  0.7818608E-02  0.1180000E+00
       11   -1    0    0    0    0  0.00000000000E+00  0.00000000000E+00  0.39999999673E+01  0.40000000000E+01  0.51109989000E-03 0.  1.
     -623   -1    0    0    0    0  0.00000000000E+00  0.00000000000E+00  0.12525980253E-10  0.17130000000E+03  0.17130000000E+03 0. -1.
       11    1    1    2    0    0  0.43088629408E-01 -0.46508177671E-01  0.23333866462E+00  0.24179916089E+00  0.51109989000E-03 0.  1.
     -623    1    1    2    0    0 -0.74762831028E-01 -0.51533528313E-03  0.57124289182E-01  0.17130002584E+03  0.17130000000E+03 0. -1.
      622    1    1    2    0    0  0.31674201620E-01  0.47023512954E-01  0.37095370136E+01  0.37581749987E+01  0.60000000000E+00 0.  1.
</event>
<event>
 5   0  0.1014700E+04  0.9118800E+02  0.7818608E-02  0.1180000E+00
       11   -1    0    0    0    0  0.00000000000E+00  0.00000000000E+00  0.39999999673E+01  0.40000000000E+01  0.51109989000E-03 0.  1.
     -623   -1    0    0    0    0  0.00000000000E+00  0.00000000000E+00  0.12525980253E-10  0.17130000000E+03  0.17130000000E+03 0.  1.
       11    1    1    2    0    0  0.51124935170E-01  0.25938766136E-01  0.17286858626E+00  0.18212739476E+00  0.51109989000E-03 0.  1.
     -623    1    1    2    0    0 -0.10254659252E-01 -0.56740147368E-01  0.57066998990E-01  0.17130001921E+03  0.17130000000E+03 0.  1.
      622    1    1    2    0    0 -0.40870275918E-01  0.30801381232E-01  0.37700643821E+01  0.38178533955E+01  0.60000000000E+00 0.  1.
</event>
<event>
 5   0  0.1014700E+04  0.9118800E+02  0.7818608E-02  0.1180000E+00
       11   -1    0    0    0    0  0.00000000000E+00  0.00000000000E+00  0.39999999673E+01  0.40000000000E+01  0.51109989000E-03 0. -1.
     -623   -1    0    0    0    0  0.00000000000E+00  0.00000000000E+00  0.12525980253E-10  0.17130000000E+03  0.17130000000E+03 0. -1.
       11    1    1    2    0    0 -0.10574898969E+00 -0.35072517468E+00  0.56507718717E+00  0.67342667430E+00  0.51109989000E-03 0. -1.
     -623    1    1    2    0    0  0.25021972172E+00  0.58510354823E-01  0.17947795778E+00  0.17130028676E+03  0.17130000000E+03 0. -1.
      622    1    1    2    0    0 -0.14447073203E+00  0.29221481985E+00  0.32554448224E+01  0.33262865609E+01  0.60000000000E+00 0. -1.
</event>
<event>
 5   0  0.1014700E+04  0.9118800E+02  0.7818608E-02  0.1180000E+00
       11   -1    0    0    0    0  0.00000000000E+00  0.00000000000E+00  0.39999999673E+01  0.40000000000E+01  0.51109989000E-03 0. -1.
     -623   -1    0    0    0    0  0.00000000000E+00  0.00000000000E+00  0.12525980253E-10  0.17130000000E+03  0.17130000000E+03 0.  1.
       11    1    1    2    0    0  0.55996858138E-01  0.55515475092E-01  0.11962132142E+01  0.11988093807E+01  0.51109989000E-03 0. -1.
     -623    1    1    2    0    0 -0.44331032256E-01 -0.19489474434E-01  0.67891798969E-01  0.17130002030E+03  0.17130000000E+03 0.  1.
      622    1    1    2    0    0 -0.11665825881E-01 -0.36026000658E-01  0.27358949541E+01  0.28011703205E+01  0.60000000000E+00 0. -1.
</event>
<event>
 5   0  0.1014700E+04  0.9118800E+02  0.7818608E-02  0.1180000E+00
       11   -1    0    0    0    0  0.00000000000E+00  0.00000000000E+00  0.39999999673E+01  0.40000000000E+01  0.51109989000E-03 0.  1.
     -623   -1    0    0    0    0  0.00000000000E+00  0.00000000000E+00  0.12525980253E-10  0.17130000000E+03  0.17130000000E+03 0. -1.
       11    1    1    2    0    0 -0.10421824761E-01  0.72672409448E-02  0.10158093871E-01  0.16274990522E-01  0.51109989000E-03 0.  1.
     -623    1    1    2    0    0  0.62902110065E-02  0.13647904418E-01  0.51626134990E-01  0.17130000844E+03  0.17130000000E+03 0. -1.
      622    1    1    2    0    0  0.41316137550E-02 -0.20915145363E-01  0.39382157385E+01  0.39837165708E+01  0.60000000000E+00 0.  1.
</event>
<event>
 5   0  0.1014700E+04  0.9118800E+02  0.7818608E-02  0.1180000E+00
       11   -1    0    0    0    0  0.00000000000E+00  0.00000000000E+00  0.39999999673E+01  0.40000000000E+01  0.51109989000E-03 0.  1.
     -623   -1    0    0    0    0  0.00000000000E+00  0.00000000000E+00  0.12525980253E-10  0.17130000000E+03  0.17130000000E+03 0.  1.
       11    1    1    2    0    0 -0.22121055361E-02  0.78154238354E-02  0.28240540831E-02  0.86145669589E-02  0.51109989000E-03 0.  1.
     -623    1    1    2    0    0 -0.12447848922E-01 -0.56896110349E-02  0.51181382041E-01  0.17130000819E+03  0.17130000000E+03 0.  1.
      622    1    1    2    0    0  0.14659954458E-01 -0.21258128006E-02  0.39459945312E+01  0.39913772402E+01  0.60000000000E+00 0.  1.
</event>
<event>
 5   0  0.1014700E+04  0.9118800E+02  0.7818608E-02  0.1180000E+00
       11   -1    0    0    0    0  0.00000000000E+00  0.00000000000E+00  0.39999999673E+01  0.40000000000E+01  0.51109989000E-03 0. -1.
     -623   -1    0    0    0    0  0.00000000000E+00  0.00000000000E+00  0.12525980253E-10  0.17130000000E+03  0.17130000000E+03 0. -1.
       11    1    1    2    0    0 -0.27090238476E-01 -0.35050076305E-01  0.27572853834E-01  0.52181532757E-01  0.51109989000E-03 0. -1.
     -623    1    1    2    0    0  0.81360154251E-01 -0.11029713325E-01  0.71154238958E-01  0.17130003445E+03  0.17130000000E+03 0. -1.
      622    1    1    2    0    0 -0.54269915774E-01  0.46079789631E-01  0.39012728746E+01  0.39477840129E+01  0.60000000000E+00 0. -1.
</event>
<event>
 5   0  0.1014700E+04  0.9118800E+02  0.7818608E-02  0.1180000E+00
       11   -1    0    0    0    0  0.00000000000E+00  0.00000000000E+00  0.39999999673E+01  0.40000000000E+01  0.51109989000E-03 0.  1.
     -623   -1    0    0    0    0  0.00000000000E+00  0.00000000000E+00  0.12525980253E-10  0.17130000000E+03  0.17130000000E+03 0. -1.
       11    1    1    2    0    0 -0.48154182521E-01  0.33386074889E-01  0.31439207468E+00  0.31980633693E+00  0.51109989000E-03 0.  1.
     -623    1    1    2    0    0  0.51898104040E-01  0.70550236172E-02  0.54898290468E-01  0.17130001680E+03  0.17130000000E+03 0. -1.
      622    1    1    2    0    0 -0.37439215192E-02 -0.40441098506E-01  0.36307096022E+01  0.36801768592E+01  0.60000000000E+00 0.  1.
</event>
<event>
 5   0  0.1014700E+04  0.9118800E+02  0.7818608E-02  0.1180000E+00
       11   -1    0    0    0    0  0.00000000000E+00  0.00000000000E+00  0.39999999673E+01  0.40000000000E+01  0.51109989000E-03 0.  1.
     -623   -1    0    0    0    0  0.00000000000E+00  0.00000000000E+00  0.12525980253E-10  0.17130000000E+03  0.17130000000E+03 0.  1.
       11    1    1    2    0    0 -0.26954613565E-01 -0.25551978351E-01  0.42645066529E-01  0.56553671078E-01  0.51109989000E-03 0.  1.
     -623    1    1    2    0    0  0.33671507018E-01  0.39940803754E-02  0.59900600642E-01  0.17130001383E+03  0.17130000000E+03 0.  1.
      622    1    1    2    0    0 -0.67168934528E-02  0.21557897975E-01  0.38974543002E+01  0.39434324999E+01  0.60000000000E+00 0.  1.
</event>
<event>
 5   0  0.1014700E+04  0.9118800E+02  0.7818608E-02  0.1180000E+00
       11   -1    0    0    0    0  0.00000000000E+00  0.00000000000E+00  0.39999999673E+01  0.40000000000E+01  0.51109989000E-03 0.  1.
     -623   -1    0    0    0    0  0.00000000000E+00  0.00000000000E+00  0.12525980253E-10  0.17130000000E+03  0.17130000000E+03 0. -1.
       11    1    1    2    0    0 -0.56075446772E-01  0.86316541661E-01  0.20875760036E+00  0.23275523200E+00  0.51109989000E-03 0.  1.
     -623    1    1    2    0    0  0.39099903399E-01 -0.67523938258E-01  0.72204418456E-01  0.17130003299E+03  0.17130000000E+03 0. -1.
      622    1    1    2    0    0  0.16975543373E-01 -0.18792603403E-01  0.37190379485E+01  0.37672117798E+01  0.60000000000E+00 0.  1.
</event>
<event>
 5   0  0.1014700E+04  0.9118800E+02  0.7818608E-02  0.1180000E+00
       11   -1    0    0    0    0  0.00000000000E+00  0.00000000000E+00  0.39999999673E+01  0.40000000000E+01  0.51109989000E-03 0. -1.
     -623   -1    0    0    0    0  0.00000000000E+00  0.00000000000E+00  0.12525980253E-10  0.17130000000E+03  0.17130000000E+03 0.  1.
       11    1    1    2    0    0 -0.10321049679E+00 -0.35253806824E+00  0.61519427018E+00  0.71651918850E+00  0.51109989000E-03 0. -1.
     -623    1    1    2    0    0 -0.14753337916E+00  0.24726038730E+00  0.16841677810E+00  0.17130032477E+03  0.17130000000E+03 0.  1.
      622    1    1    2    0    0  0.25074387595E+00  0.10527768094E+00  0.32163889191E+01  0.32831560365E+01  0.60000000000E+00 0. -1.
</event>
<event>
 5   0  0.1014700E+04  0.9118800E+02  0.7818608E-02  0.1180000E+00
       11   -1    0    0    0    0  0.00000000000E+00  0.00000000000E+00  0.39999999673E+01  0.40000000000E+01  0.51109989000E-03 0. -1.
     -623   -1    0    0    0    0  0.00000000000E+00  0.00000000000E+00  0.12525980253E-10  0.17130000000E+03  0.17130000000E+03 0.  1.
       11    1    1    2    0    0  0.13717808838E-02  0.61216220781E-02 -0.15536199415E-01  0.16762778857E-01  0.51109989000E-03 0. -1.
     -623    1    1    2    0    0 -0.26428522602E-01  0.91750337500E-02  0.77877254791E-01  0.17130001999E+03  0.17130000000E+03 0.  1.
      622    1    1    2    0    0  0.25056741719E-01 -0.15296655828E-01  0.39376589120E+01  0.39832172342E+01  0.60000000000E+00 0. -1.
</event>
<event>
 5   0  0.1014700E+04  0.9118800E+02  0.7818608E-02  0.1180000E+00
       11   -1    0    0    0    0  0.00000000000E+00  0.00000000000E+00  0.39999999673E+01  0.40000000000E+01  0.51109989000E-03 0. -1.
     -623   -1    0    0    0    0  0.00000000000E+00  0.00000000000E+00  0.12525980253E-10  0.17130000000E+03  0.17130000000E+03 0. -1.
       11    1    1    2    0    0 -0.54154955258E-01  0.10658985633E+00  0.19050986069E+00  0.22491870729E+00  0.51109989000E-03 0. -1.
     -623    1    1    2    0    0  0.12579637947E-01  0.35868345600E-01  0.85376326914E-01  0.17130002549E+03  0.17130000000E+03 0. -1.
      622    1    1    2    0    0  0.41575317311E-01 -0.14245820193E+00  0.37241137798E+01  0.37750557997E+01  0.60000000000E+00 0. -1.
</event>
<event>
 5   0  0.1014700E+04  0.9118800E+02  0.7818608E-02  0.1180000E+00
       11   -1    0    0    0    0  0.00000000000E+00  0.00000000000E+00  0.39999999673E+01  0.40000000000E+01  0.51109989000E-03 0.  1.
     -623   -1    0    0    0    0  0.00000000000E+00  0.00000000000E+00  0.12525980253E-10  0.17130000000E+03  0.17130000000E+03 0.  1.
       11    1    1    2    0    0 -0.29144411984E-01 -0.47125157014E-01  0.22428843387E+00  0.23103190248E+00  0.51109989000E-03 0.  1.
     -623    1    1    2    0    0  0.38225099461E-01  0.36283972426E-01  0.54852329541E-01  0.17130001689E+03  0.17130000000E+03 0.  1.
      622    1    1    2    0    0 -0.90806874775E-02  0.10841184588E-01  0.37208592040E+01  0.37689512077E+01  0.60000000000E+00 0.  1.
</event>
<event>
 5   0  0.1014700E+04  0.9118800E+02  0.7818608E-02  0.1180000E+00
       11   -1    0    0    0    0  0.00000000000E+00  0.00000000000E+00  0.39999999673E+01  0.40000000000E+01  0.51109989000E-03 0. -1.
     -623   -1    0    0    0    0  0.00000000000E+00  0.00000000000E+00  0.12525980253E-10  0.17130000000E+03  0.17130000000E+03 0.  1.
       11    1    1    2    0    0  0.19525084585E+00 -0.35395295629E-01  0.39536346105E+00  0.44236664354E+00  0.51109989000E-03 0. -1.
     -623    1    1    2    0    0 -0.81191089117E-01 -0.23204608368E-01  0.10035993983E+00  0.17130005021E+03  0.17130000000E+03 0.  1.
      622    1    1    2    0    0 -0.11405975673E+00  0.58599903997E-01  0.35042765665E+01  0.35575831447E+01  0.60000000000E+00 0. -1.
</event>
<event>
 5   0  0.1014700E+04  0.9118800E+02  0.7818608E-02  0.1180000E+00
       11   -1    0    0    0    0  0.00000000000E+00  0.00000000000E+00  0.39999999673E+01  0.40000000000E+01  0.51109989000E-03 0.  1.
     -623   -1    0    0    0    0  0.00000000000E+00  0.00000000000E+00  0.12525980253E-10  0.17130000000E+03  0.17130000000E+03 0.  1.
       11    1    1    2    0    0 -0.22696437595E-01 -0.15434979975E-01  0.23301945384E+00  0.23463097403E+00  0.51109989000E-03 0.  1.
     -623    1    1    2    0    0  0.41684193704E-01 -0.37176706444E-01  0.50160434829E-01  0.17130001645E+03  0.17130000000E+03 0.  1.
      622    1    1    2    0    0 -0.18987756109E-01  0.52611686419E-01  0.37168200787E+01  0.37653525760E+01  0.60000000000E+00 0.  1.
</event>
<event>
 5   0  0.1014700E+04  0.9118800E+02  0.7818608E-02  0.1180000E+00
       11   -1    0    0    0    0  0.00000000000E+00  0.00000000000E+00  0.39999999673E+01  0.40000000000E+01  0.51109989000E-03 0.  1.
     -623   -1    0    0    0    0  0.00000000000E+00  0.00000000000E+00  0.12525980253E-10  0.17130000000E+03  0.17130000000E+03 0.  1.
       11    1    1    2    0    0 -0.12161335205E+00 -0.19834186651E+00  0.22399387784E+00  0.32295947414E+00  0.51109989000E-03 0.  1.
     -623    1    1    2    0    0  0.15727794149E+00  0.29910557615E+00  0.15022809181E+00  0.17130039921E+03  0.17130000000E+03 0.  1.
      622    1    1    2    0    0 -0.35664589434E-01 -0.10076370964E+00  0.36257779977E+01  0.36766413174E+01  0.60000000000E+00 0.  1.
</event>
<event>
 5   0  0.1014700E+04  0.9118800E+02  0.7818608E-02  0.1180000E+00
       11   -1    0    0    0    0  0.00000000000E+00  0.00000000000E+00  0.39999999673E+01  0.40000000000E+01  0.51109989000E-03 0. -1.
     -623   -1    0    0    0    0  0.00000000000E+00  0.00000000000E+00  0.12525980253E-10  0.17130000000E+03  0.17130000000E+03 0.  1.
       11    1    1    2    0    0 -0.59678614872E-01  0.45740783743E-01  0.10955572844E+00  0.13287767016E+00  0.51109989000E-03 0. -1.
     -623    1    1    2    0    0  0.54444255201E-01  0.37262083544E-01  0.71084880969E-01  0.17130002745E+03  0.17130000000E+03 0.  1.
      622    1    1    2    0    0  0.52343596707E-02 -0.83002867288E-01  0.38193593580E+01  0.38670948760E+01  0.60000000000E+00 0. -1.
</event>
<event>
 5   0  0.1014700E+04  0.9118800E+02  0.7818608E-02  0.1180000E+00
       11   -1    0    0    0    0  0.00000000000E+00  0.00000000000E+00  0.39999999673E+01  0.40000000000E+01  0.51109989000E-03 0. -1.
     -623   -1    0    0    0    0  0.00000000000E+00  0.00000000000E+00  0.12525980253E-10  0.17130000000E+03  0.17130000000E+03 0. -1.
       11    1    1    2    0    0  0.86709629475E-02  0.29295561145E-01  0.13960505780E+00  0.14290993278E+00  0.51109989000E-03 0. -1.
     -623    1    1    2    0    0  0.40610153465E-01 -0.32039199676E-01  0.50593110442E-01  0.17130001528E+03  0.17130000000E+03 0. -1.
      622    1    1    2    0    0 -0.49281116413E-01  0.27436385314E-02  0.38098017991E+01  0.38570747860E+01  0.60000000000E+00 0. -1.
</event>
<event>
 5   0  0.1014700E+04  0.9118800E+02  0.7818608E-02  0.1180000E+00
       11   -1    0    0    0    0  0.00000000000E+00  0.00000000000E+00  0.39999999673E+01  0.40000000000E+01  0.51109989000E-03 0. -1.
     -623   -1    0    0    0    0  0.00000000000E+00  0.00000000000E+00  0.12525980253E-10  0.17130000000E+03  0.17130000000E+03 0.  1.
       11    1    1    2    0    0 -0.46027034903E-02  0.13735326198E-01 -0.73364018253E-02  0.16245863475E-01  0.51109989000E-03 0. -1.
     -623    1    1    2    0    0  0.20657149560E-01 -0.69467360168E-02  0.69078992020E-01  0.17130001531E+03  0.17130000000E+03 0.  1.
      622    1    1    2    0    0 -0.16054446069E-01 -0.67885901816E-02  0.39382573772E+01  0.39837388216E+01  0.60000000000E+00 0. -1.
</event>
<event>
 5   0  0.1014700E+04  0.9118800E+02  0.7818608E-02  0.1180000E+00
       11   -1    0    0    0    0  0.00000000000E+00  0.00000000000E+00  0.39999999673E+01  0.40000000000E+01  0.51109989000E-03 0. -1.
     -623   -1    0    0    0    0  0.00000000000E+00  0.00000000000E+00  0.12525980253E-10  0.17130000000E+03  0.17130000000E+03 0.  1.
       11    1    1    2    0    0  0.16468086322E+00 -0.17285964138E-01  0.97819906235E+00  0.99211504276E+00  0.51109989000E-03 0. -1.
     -623    1    1    2    0    0 -0.76907581612E-01 -0.41930256998E-01  0.76308716890E-01  0.17130003939E+03  0.17130000000E+03 0.  1.
      622    1    1    2    0    0 -0.87773281603E-01  0.59216221137E-01  0.29454921881E+01  0.30078455645E+01  0.60000000000E+00 0.  1.
</event>
<event>
 5   0  0.1014700E+04  0.9118800E+02  0.7818608E-02  0.1180000E+00
       11   -1    0    0    0    0  0.00000000000E+00  0.00000000000E+00  0.39999999673E+01  0.40000000000E+01  0.51109989000E-03 0.  1.
     -623   -1    0    0    0    0  0.00000000000E+00  0.00000000000E+00  0.12525980253E-10  0.17130000000E+03  0.17130000000E+03 0. -1.
       11    1    1    2    0    0 -0.14394247832E+00  0.11173663535E+00  0.46070248383E+00  0.49543067383E+00  0.51109989000E-03 0.  1.
     -623    1    1    2    0    0  0.16360854068E+00 -0.33778572180E-01  0.87513263819E-01  0.17130010382E+03  0.17130000000E+03 0. -1.
      622    1    1    2    0    0 -0.19666062361E-01 -0.77958063174E-01  0.34517842197E+01  0.35044655103E+01  0.60000000000E+00 0.  1.
</event>
<event>
 5   0  0.1014700E+04  0.9118800E+02  0.7818608E-02  0.1180000E+00
       11   -1    0    0    0    0  0.00000000000E+00  0.00000000000E+00  0.39999999673E+01  0.40000000000E+01  0.51109989000E-03 0. -1.
     -623   -1    0    0    0    0  0.00000000000E+00  0.00000000000E+00  0.12525980253E-10  0.17130000000E+03  0.17130000000E+03 0. -1.
       11    1    1    2    0    0 -0.88455531357E-02 -0.19371952571E+00  0.71540656628E-01  0.20669742433E+00  0.51109989000E-03 0. -1.
     -623    1    1    2    0    0  0.20961471141E+00 -0.23208559706E-02  0.19367676565E+00  0.17130023775E+03  0.17130000000E+03 0. -1.
      622    1    1    2    0    0 -0.20076915828E+00  0.19604038168E+00  0.37347825451E+01  0.37930648222E+01  0.60000000000E+00 0. -1.
</event>
<event>
 5   0  0.1014700E+04  0.9118800E+02  0.7818608E-02  0.1180000E+00
       11   -1    0    0    0    0  0.00000000000E+00  0.00000000000E+00  0.39999999673E+01  0.40000000000E+01  0.51109989000E-03 0. -1.
     -623   -1    0    0    0    0  0.00000000000E+00  0.00000000000E+00  0.12525980253E-10  0.17130000000E+03  0.17130000000E+03 0. -1.
       11    1    1    2    0    0 -0.60490417578E-01 -0.16081012581E-01  0.89050617607E-01  0.10884835003E+00  0.51109989000E-03 0. -1.
     -623    1    1    2    0    0  0.10787932406E-01  0.26523037480E-01  0.66685811475E-01  0.17130001537E+03  0.17130000000E+03 0. -1.
      622    1    1    2    0    0  0.49702485171E-01 -0.10442024899E-01  0.38442635383E+01  0.38911362768E+01  0.60000000000E+00 0. -1.
</event>
<event>
 5   0  0.1014700E+04  0.9118800E+02  0.7818608E-02  0.1180000E+00
       11   -1    0    0    0    0  0.00000000000E+00  0.00000000000E+00  0.39999999673E+01  0.40000000000E+01  0.51109989000E-03 0. -1.
     -623   -1    0    0    0    0  0.00000000000E+00  0.00000000000E+00  0.12525980253E-10  0.17130000000E+03  0.17130000000E+03 0.  1.
       11    1    1    2    0    0  0.46861192385E-01  0.69765148889E-02  0.90731332590E-01  0.10235760376E+00  0.51109989000E-03 0. -1.
     -623    1    1    2    0    0 -0.58389471410E-01 -0.26704505972E-02  0.58124623092E-01  0.17130001983E+03  0.17130000000E+03 0.  1.
      622    1    1    2    0    0  0.11528279025E-01 -0.43060642916E-02  0.38511440117E+01  0.38976225628E+01  0.60000000000E+00 0. -1.
</event>
<event>
 5   0  0.1014700E+04  0.9118800E+02  0.7818608E-02  0.1180000E+00
       11   -1    0    0    0    0  0.00000000000E+00  0.00000000000E+00  0.39999999673E+01  0.40000000000E+01  0.51109989000E-03 0.  1.
     -623   -1    0    0    0    0  0.00000000000E+00  0.00000000000E+00  0.12525980253E-10  0.17130000000E+03  0.17130000000E+03 0.  1.
       11    1    1    2    0    0 -0.19208345882E-01  0.72957249138E-02  0.24598713609E-01  0.32055359693E-01  0.51109989000E-03 0.  1.
     -623    1    1    2    0    0  0.34822637824E-01  0.46717644766E-02  0.53143788068E-01  0.17130001185E+03  0.17130000000E+03 0.  1.
      622    1    1    2    0    0 -0.15614291942E-01 -0.11967489390E-01  0.39222574657E+01  0.39679327935E+01  0.60000000000E+00 0.  1.
</event>
<event>
 5   0  0.1014700E+04  0.9118800E+02  0.7818608E-02  0.1180000E+00
       11   -1    0    0    0    0  0.00000000000E+00  0.00000000000E+00  0.39999999673E+01  0.40000000000E+01  0.51109989000E-03 0.  1.
     -623   -1    0    0    0    0  0.00000000000E+00  0.00000000000E+00  0.12525980253E-10  0.17130000000E+03  0.17130000000E+03 0.  1.
       11    1    1    2    0    0  0.93063362729E-02 -0.11390280871E+00  0.66220635635E+00  0.67199551884E+00  0.51109989000E-03 0.  1.
     -623    1    1    2    0    0 -0.16892779475E-01  0.49242422890E-01  0.64990440127E-01  0.17130002024E+03  0.17130000000E+03 0.  1.
      622    1    1    2    0    0  0.75864432024E-02  0.64660385816E-01  0.32728031709E+01  0.33279842420E+01  0.60000000000E+00 0.  1.
</event>
<event>
 5   0  0.1014700E+04  0.9118800E+02  0.7818608E-02  0.1180000E+00
       11   -1    0    0    0    0  0.00000000000E+00  0.00000000000E+00  0.39999999673E+01  0.40000000000E+01  0.51109989000E-03 0.  1.
     -623   -1    0    0    0    0  0.00000000000E+00  0.00000000000E+00  0.12525980253E-10  0.17130000000E+03  0.17130000000E+03 0. -1.
       11    1    1    2    0    0 -0.13479161640E-01 -0.10005086451E-01  0.57101232280E-01  0.59519757250E-01  0.51109989000E-03 0.  1.
     -623    1    1    2    0    0  0.18964885621E-02  0.90898370630E-01  0.49255106486E-01  0.17130003121E+03  0.17130000000E+03 0. -1.
      622    1    1    2    0    0  0.11582673078E-01 -0.80893284179E-01  0.38936436286E+01  0.39404490338E+01  0.60000000000E+00 0.  1.
</event>
<event>
 5   0  0.1014700E+04  0.9118800E+02  0.7818608E-02  0.1180000E+00
       11   -1    0    0    0    0  0.00000000000E+00  0.00000000000E+00  0.39999999673E+01  0.40000000000E+01  0.51109989000E-03 0.  1.
     -623   -1    0    0    0    0  0.00000000000E+00  0.00000000000E+00  0.12525980253E-10  0.17130000000E+03  0.17130000000E+03 0.  1.
       11    1    1    2    0    0 -0.15518835160E-01 -0.98974926325E-02 -0.10944753453E-02  0.18445967162E-01  0.51109989000E-03 0.  1.
     -623    1    1    2    0    0 -0.25406919972E-01  0.18231300349E-01  0.65245554368E-01  0.17130001528E+03  0.17130000000E+03 0.  1.
      622    1    1    2    0    0  0.40925755133E-01 -0.83338077168E-02  0.39358488883E+01  0.39815387530E+01  0.60000000000E+00 0.  1.
</event>
<event>
 5   0  0.1014700E+04  0.9118800E+02  0.7818608E-02  0.1180000E+00
       11   -1    0    0    0    0  0.00000000000E+00  0.00000000000E+00  0.39999999673E+01  0.40000000000E+01  0.51109989000E-03 0.  1.
     -623   -1    0    0    0    0  0.00000000000E+00  0.00000000000E+00  0.12525980253E-10  0.17130000000E+03  0.17130000000E+03 0. -1.
       11    1    1    2    0    0 -0.97307910224E-02  0.14139274849E-01  0.40717701539E-01  0.44190494779E-01  0.51109989000E-03 0.  1.
     -623    1    1    2    0    0  0.35555166240E-01 -0.67644786875E-02  0.49343509316E-01  0.17130001093E+03  0.17130000000E+03 0. -1.
      622    1    1    2    0    0 -0.25824375217E-01 -0.73747961611E-02  0.39099387565E+01  0.39557985750E+01  0.60000000000E+00 0.  1.
</event>
<event>
 5   0  0.1014700E+04  0.9118800E+02  0.7818608E-02  0.1180000E+00
       11   -1    0    0    0    0  0.00000000000E+00  0.00000000000E+00  0.39999999673E+01  0.40000000000E+01  0.51109989000E-03 0. -1.
     -623   -1    0    0    0    0  0.00000000000E+00  0.00000000000E+00  0.12525980253E-10  0.17130000000E+03  0.17130000000E+03 0. -1.
       11    1    1    2    0    0  0.31621753998E-01 -0.23295494753E-01  0.74587569863E-01  0.84298174374E-01  0.51109989000E-03 0. -1.
     -623    1    1    2    0    0  0.20278753512E-01  0.68701160617E-01  0.56591523732E-01  0.17130002432E+03  0.17130000000E+03 0. -1.
      622    1    1    2    0    0 -0.51900507510E-01 -0.45405665865E-01  0.38688208738E+01  0.39156775008E+01  0.60000000000E+00 0. -1.
</event>
<event>
 5   0  0.1014700E+04  0.9118800E+02  0.7818608E-02  0.1180000E+00
       11   -1    0    0    0    0  0.00000000000E+00  0.00000000000E+00  0.39999999673E+01  0.40000000000E+01  0.51109989000E-03 0.  1.
     -623   -1    0    0    0    0  0.00000000000E+00  0.00000000000E+00  0.12525980253E-10  0.17130000000E+03  0.17130000000E+03 0. -1.
       11    1    1    2    0    0  0.28636248242E-01 -0.12029329511E-01  0.32728873603E+00  0.32875966516E+00  0.51109989000E-03 0.  1.
     -623    1    1    2    0    0  0.76908453782E-01 -0.65591021090E-01  0.53241480897E-01  0.17130003810E+03  0.17130000000E+03 0. -1.
      622    1    1    2    0    0 -0.10554470202E+00  0.77620350601E-01  0.36194697504E+01  0.36712022387E+01  0.60000000000E+00 0.  1.
</event>
<event>
 5   0  0.1014700E+04  0.9118800E+02  0.7818608E-02  0.1180000E+00
       11   -1    0    0    0    0  0.00000000000E+00  0.00000000000E+00  0.39999999673E+01  0.40000000000E+01  0.51109989000E-03 0.  1.
     -623   -1    0    0    0    0  0.00000000000E+00  0.00000000000E+00  0.12525980253E-10  0.17130000000E+03  0.17130000000E+03 0.  1.
       11    1    1    2    0    0 -0.60091841931E-02 -0.73410350903E-01  0.31150064784E+00  0.32009077578E+00  0.51109989000E-03 0.  1.
     -623    1    1    2    0    0  0.99907380352E-01  0.40903767667E-01  0.59238706366E-01  0.17130004426E+03  0.17130000000E+03 0.  1.
      622    1    1    2    0    0 -0.93898196159E-01  0.32506583235E-01  0.36292606132E+01  0.36798649632E+01  0.60000000000E+00 0.  1.
</event>
<event>
 5   0  0.1014700E+04  0.9118800E+02  0.7818608E-02  0.1180000E+00
       11   -1    0    0    0    0  0.00000000000E+00  0.00000000000E+00  0.39999999673E+01  0.40000000000E+01  0.51109989000E-03 0. -1.
     -623   -1    0    0    0    0  0.00000000000E+00  0.00000000000E+00  0.12525980253E-10  0.17130000000E+03  0.17130000000E+03 0.  1.
       11    1    1    2    0    0 -0.12656594549E+00 -0.80164172139E-01  0.10391267567E+01  0.10498713782E+01  0.51109989000E-03 0. -1.
     -623    1    1    2    0    0  0.64791890952E-01 -0.79902114086E-01  0.77552935743E-01  0.17130004844E+03  0.17130000000E+03 0.  1.
      622    1    1    2    0    0  0.61774054534E-01  0.16006628623E+00  0.28833202749E+01  0.29500801782E+01  0.60000000000E+00 0.  1.
</event>
<event>
 5   0  0.1014700E+04  0.9118800E+02  0.7818608E-02  0.1180000E+00
       11   -1    0    0    0    0  0.00000000000E+00  0.00000000000E+00  0.39999999673E+01  0.40000000000E+01  0.51109989000E-03 0. -1.
     -623   -1    0    0    0    0  0.00000000000E+00  0.00000000000E+00  0.12525980253E-10  0.17130000000E+03  0.17130000000E+03 0. -1.
       11    1    1    2    0    0 -0.11291961148E+00  0.18769951343E+00  0.10748646796E+01  0.10969577415E+01  0.51109989000E-03 0. -1.
     -623    1    1    2    0    0 -0.40145185816E+00  0.13489895545E+00  0.15104433197E+00  0.17130059012E+03  0.17130000000E+03 0. -1.
      622    1    1    2    0    0  0.51437146964E+00 -0.32259846888E+00  0.27740909558E+01  0.29024521377E+01  0.60000000000E+00 0.  0.
</event>
<event>
 5   0  0.1014700E+04  0.9118800E+02  0.7818608E-02  0.1180000E+00
       11   -1    0    0    0    0  0.00000000000E+00  0.00000000000E+00  0.39999999673E+01  0.40000000000E+01  0.51109989000E-03 0.  1.
     -623   -1    0    0    0    0  0.00000000000E+00  0.00000000000E+00  0.12525980253E-10  0.17130000000E+03  0.17130000000E+03 0. -1.
       11    1    1    2    0    0  0.36608859186E-01  0.27602454695E-01  0.57068421041E-01  0.73206352042E-01  0.51109989000E-03 0.  1.
     -623    1    1    2    0    0 -0.69182123604E-01 -0.14541739289E+00  0.64261947244E-01  0.17130008775E+03  0.17130000000E+03 0. -1.
      622    1    1    2    0    0  0.32573264418E-01  0.11781493819E+00  0.38786695991E+01  0.39267059014E+01  0.60000000000E+00 0.  1.
</event>
<event>
 5   0  0.1014700E+04  0.9118800E+02  0.7818608E-02  0.1180000E+00
       11   -1    0    0    0    0  0.00000000000E+00  0.00000000000E+00  0.39999999673E+01  0.40000000000E+01  0.51109989000E-03 0. -1.
     -623   -1    0    0    0    0  0.00000000000E+00  0.00000000000E+00  0.12525980253E-10  0.17130000000E+03  0.17130000000E+03 0.  1.
       11    1    1    2    0    0  0.14497444659E-01  0.74998388360E-02  0.80812793291E+00  0.80829291761E+00  0.51109989000E-03 0. -1.
     -623    1    1    2    0    0  0.35697618712E-01  0.11614135667E-02  0.57495832445E-01  0.17130001337E+03  0.17130000000E+03 0.  1.
      622    1    1    2    0    0 -0.50195063371E-01 -0.86612524027E-02  0.31343762020E+01  0.31916937098E+01  0.60000000000E+00 0. -1.
</event>
<event>
 5   0  0.1014700E+04  0.9118800E+02  0.7818608E-02  0.1180000E+00
       11   -1    0    0    0    0  0.00000000000E+00  0.00000000000E+00  0.39999999673E+01  0.40000000000E+01  0.51109989000E-03 0.  1.
     -623   -1    0    0    0    0  0.00000000000E+00  0.00000000000E+00  0.12525980253E-10  0.17130000000E+03  0.17130000000E+03 0.  1.
       11    1    1    2    0    0  0.13922171974E-01  0.77551522526E-01  0.17133848308E+00  0.18858738697E+00  0.51109989000E-03 0.  1.
     -623    1    1    2    0    0 -0.29296392379E-01 -0.14828924990E+00  0.65548151361E-01  0.17130007923E+03  0.17130000000E+03 0.  1.
      622    1    1    2    0    0  0.15374220405E-01  0.70737727378E-01  0.37631133329E+01  0.38113333821E+01  0.60000000000E+00 0.  1.
</event>
<event>
 5   0  0.1014700E+04  0.9118800E+02  0.7818608E-02  0.1180000E+00
       11   -1    0    0    0    0  0.00000000000E+00  0.00000000000E+00  0.39999999673E+01  0.40000000000E+01  0.51109989000E-03 0.  1.
     -623   -1    0    0    0    0  0.00000000000E+00  0.00000000000E+00  0.12525980253E-10  0.17130000000E+03  0.17130000000E+03 0. -1.
       11    1    1    2    0    0  0.24705274527E-01  0.11478558234E-01  0.37548991503E-02  0.27503970201E-01  0.51109989000E-03 0.  1.
     -623    1    1    2    0    0 -0.59479510480E-01 -0.21575182271E-01  0.69515052401E-01  0.17130002579E+03  0.17130000000E+03 0. -1.
      622    1    1    2    0    0  0.34774235954E-01  0.10096624038E-01  0.39267300158E+01  0.39724702398E+01  0.60000000000E+00 0.  1.
</event>
<event>
 5   0  0.1014700E+04  0.9118800E+02  0.7818608E-02  0.1180000E+00
       11   -1    0    0    0    0  0.00000000000E+00  0.00000000000E+00  0.39999999673E+01  0.40000000000E+01  0.51109989000E-03 0. -1.
     -623   -1    0    0    0    0  0.00000000000E+00  0.00000000000E+00  0.12525980253E-10  0.17130000000E+03  0.17130000000E+03 0.  1.
       11    1    1    2    0    0  0.11077114666E-01 -0.84705224930E-03 -0.30597441267E-01  0.32555868933E-01  0.51109989000E-03 0. -1.
     -623    1    1    2    0    0 -0.32349404708E-01  0.21647221254E-01  0.10893732268E+00  0.17130003906E+03  0.17130000000E+03 0.  1.
      622    1    1    2    0    0  0.21272290042E-01 -0.20800169004E-01  0.39216600859E+01  0.39674050697E+01  0.60000000000E+00 0. -1.
</event>
<event>
 5   0  0.1014700E+04  0.9118800E+02  0.7818608E-02  0.1180000E+00
       11   -1    0    0    0    0  0.00000000000E+00  0.00000000000E+00  0.39999999673E+01  0.40000000000E+01  0.51109989000E-03 0. -1.
     -623   -1    0    0    0    0  0.00000000000E+00  0.00000000000E+00  0.12525980253E-10  0.17130000000E+03  0.17130000000E+03 0.  1.
       11    1    1    2    0    0 -0.56310332121E-01 -0.12887502416E-02  0.77164143131E+00  0.77369456126E+00  0.51109989000E-03 0. -1.
     -623    1    1    2    0    0  0.67574632461E-01 -0.31098813500E-01  0.58547474293E-01  0.17130002616E+03  0.17130000000E+03 0.  1.
      622    1    1    2    0    0 -0.11264300341E-01  0.32387563742E-01  0.31698110618E+01  0.32262792821E+01  0.60000000000E+00 0. -1.
</event>
<event>
 5   0  0.1014700E+04  0.9118800E+02  0.7818608E-02  0.1180000E+00
       11   -1    0    0    0    0  0.00000000000E+00  0.00000000000E+00  0.39999999673E+01  0.40000000000E+01  0.51109989000E-03 0. -1.
     -623   -1    0    0    0    0  0.00000000000E+00  0.00000000000E+00  0.12525980253E-10  0.17130000000E+03  0.17130000000E+03 0.  1.
       11    1    1    2    0    0  0.20569934612E-01  0.38497928039E-01  0.38906021263E+00  0.39150137030E+00  0.51109989000E-03 0. -1.
     -623    1    1    2    0    0  0.47548057093E-01 -0.23458685946E-01  0.53373607215E-01  0.17130001652E+03  0.17130000000E+03 0.  1.
      622    1    1    2    0    0 -0.68117991704E-01 -0.15039242092E-01  0.35575661475E+01  0.36084821094E+01  0.60000000000E+00 0. -1.
</event>
<event>
 5   0  0.1014700E+04  0.9118800E+02  0.7818608E-02  0.1180000E+00
       11   -1    0    0    0    0  0.00000000000E+00  0.00000000000E+00  0.39999999673E+01  0.40000000000E+01  0.51109989000E-03 0.  1.
     -623   -1    0    0    0    0  0.00000000000E+00  0.00000000000E+00  0.12525980253E-10  0.17130000000E+03  0.17130000000E+03 0. -1.
       11    1    1    2    0    0 -0.11158191561E-01  0.48326210396E-02  0.50377872491E-02  0.13171939321E-01  0.51109989000E-03 0.  1.
     -623    1    1    2    0    0  0.57643221596E-02 -0.19899297401E-01  0.53583604876E-01  0.17130000963E+03  0.17130000000E+03 0. -1.
      622    1    1    2    0    0  0.53938694016E-02  0.15066676361E-01  0.39413785752E+01  0.39868184273E+01  0.60000000000E+00 0.  1.
</event>
<event>
 5   0  0.1014700E+04  0.9118800E+02  0.7818608E-02  0.1180000E+00
       11   -1    0    0    0    0  0.00000000000E+00  0.00000000000E+00  0.39999999673E+01  0.40000000000E+01  0.51109989000E-03 0.  1.
     -623   -1    0    0    0    0  0.00000000000E+00  0.00000000000E+00  0.12525980253E-10  0.17130000000E+03  0.17130000000E+03 0. -1.
       11    1    1    2    0    0  0.29801480925E-01  0.10254187292E-02  0.18372416531E-01  0.35028369376E-01  0.51109989000E-03 0.  1.
     -623    1    1    2    0    0  0.16347259834E-02 -0.18943415377E-01  0.62496018187E-01  0.17130001246E+03  0.17130000000E+03 0. -1.
      622    1    1    2    0    0 -0.31436206908E-01  0.17917996647E-01  0.39191315326E+01  0.39649591751E+01  0.60000000000E+00 0.  1.
</event>
<event>
 5   0  0.1014700E+04  0.9118800E+02  0.7818608E-02  0.1180000E+00
       11   -1    0    0    0    0  0.00000000000E+00  0.00000000000E+00  0.39999999673E+01  0.40000000000E+01  0.51109989000E-03 0. -1.
     -623   -1    0    0    0    0  0.00000000000E+00  0.00000000000E+00  0.12525980253E-10  0.17130000000E+03  0.17130000000E+03 0.  1.
       11    1    1    2    0    0  0.19320719724E-01  0.56379083878E-01  0.63495293176E-01  0.87085043417E-01  0.51109989000E-03 0. -1.
     -623    1    1    2    0    0  0.52540037132E-02 -0.10682789421E+00  0.70320484108E-01  0.17130004782E+03  0.17130000000E+03 0.  1.
      622    1    1    2    0    0 -0.24574723438E-01  0.50448810333E-01  0.38661841901E+01  0.39128671318E+01  0.60000000000E+00 0. -1.
</event>
<event>
 5   0  0.1014700E+04  0.9118800E+02  0.7818608E-02  0.1180000E+00
       11   -1    0    0    0    0  0.00000000000E+00  0.00000000000E+00  0.39999999673E+01  0.40000000000E+01  0.51109989000E-03 0. -1.
     -623   -1    0    0    0    0  0.00000000000E+00  0.00000000000E+00  0.12525980253E-10  0.17130000000E+03  0.17130000000E+03 0.  1.
       11    1    1    2    0    0 -0.10036947626E-01  0.35096354746E-01  0.14174369157E-01  0.39162078550E-01  0.51109989000E-03 0. -1.
     -623    1    1    2    0    0 -0.48605143322E-01 -0.40345818784E-01  0.71165814591E-01  0.17130002643E+03  0.17130000000E+03 0.  1.
      622    1    1    2    0    0  0.58642090948E-01  0.52494640383E-02  0.39146597836E+01  0.39608114917E+01  0.60000000000E+00 0. -1.
</event>
<event>
 5   0  0.1014700E+04  0.9118800E+02  0.7818608E-02  0.1180000E+00
       11   -1    0    0    0    0  0.00000000000E+00  0.00000000000E+00  0.39999999673E+01  0.40000000000E+01  0.51109989000E-03 0. -1.
     -623   -1    0    0    0    0  0.00000000000E+00  0.00000000000E+00  0.12525980253E-10  0.17130000000E+03  0.17130000000E+03 0. -1.
       11    1    1    2    0    0 -0.24192150485E-01  0.21698707786E+00  0.12227239897E+00  0.25023879171E+00  0.51109989000E-03 0. -1.
     -623    1    1    2    0    0  0.96498741984E-01 -0.46032812188E-01  0.18106858710E+00  0.17130012906E+03  0.17130000000E+03 0. -1.
      622    1    1    2    0    0 -0.72306591499E-01 -0.17095426567E+00  0.36966589813E+01  0.37496321457E+01  0.60000000000E+00 0. -1.
</event>
<event>
 5   0  0.1014700E+04  0.9118800E+02  0.7818608E-02  0.1180000E+00
       11   -1    0    0    0    0  0.00000000000E+00  0.00000000000E+00  0.39999999673E+01  0.40000000000E+01  0.51109989000E-03 0. -1.
     -623   -1    0    0    0    0  0.00000000000E+00  0.00000000000E+00  0.12525980253E-10  0.17130000000E+03  0.17130000000E+03 0.  1.
       11    1    1    2    0    0  0.68732357712E-01 -0.48525413338E-01  0.18167356819E+00  0.20021088716E+00  0.51109989000E-03 0. -1.
     -623    1    1    2    0    0 -0.27947927021E-01  0.95626766935E-02  0.66647047983E-01  0.17130001551E+03  0.17130000000E+03 0.  1.
      622    1    1    2    0    0 -0.40784430691E-01  0.38962736644E-01  0.37516793512E+01  0.37997736010E+01  0.60000000000E+00 0. -1.
</event>
<event>
 5   0  0.1014700E+04  0.9118800E+02  0.7818608E-02  0.1180000E+00
       11   -1    0    0    0    0  0.00000000000E+00  0.00000000000E+00  0.39999999673E+01  0.40000000000E+01  0.51109989000E-03 0. -1.
     -623   -1    0    0    0    0  0.00000000000E+00  0.00000000000E+00  0.12525980253E-10  0.17130000000E+03  0.17130000000E+03 0. -1.
       11    1    1    2    0    0 -0.27203549414E-01 -0.31535237043E-01  0.12427893468E-01  0.43465135849E-01  0.51109989000E-03 0. -1.
     -623    1    1    2    0    0  0.38199722917E-01 -0.24120978968E-01  0.77231335209E-01  0.17130002337E+03  0.17130000000E+03 0. -1.
      622    1    1    2    0    0 -0.10996173503E-01  0.55656216011E-01  0.39103407387E+01  0.39565114966E+01  0.60000000000E+00 0. -1.
</event>
<event>
 5   0  0.1014700E+04  0.9118800E+02  0.7818608E-02  0.1180000E+00
       11   -1    0    0    0    0  0.00000000000E+00  0.00000000000E+00  0.39999999673E+01  0.40000000000E+01  0.51109989000E-03 0.  1.
     -623   -1    0    0    0    0  0.00000000000E+00  0.00000000000E+00  0.12525980253E-10  0.17130000000E+03  0.17130000000E+03 0.  1.
       11    1    1    2    0    0 -0.67122786069E-01  0.61961569617E-01  0.28170937797E+00  0.29615053500E+00  0.51109989000E-03 0.  1.
     -623    1    1    2    0    0  0.87361578725E-01 -0.10519051753E+00  0.63741315481E-01  0.17130006643E+03  0.17130000000E+03 0.  1.
      622    1    1    2    0    0 -0.20238792656E-01  0.43228947912E-01  0.36545492739E+01  0.37037830317E+01  0.60000000000E+00 0.  1.
</event>
<event>
 5   0  0.1014700E+04  0.9118800E+02  0.7818608E-02  0.1180000E+00
       11   -1    0    0    0    0  0.00000000000E+00  0.00000000000E+00  0.39999999673E+01  0.40000000000E+01  0.51109989000E-03 0. -1.
     -623   -1    0    0    0    0  0.00000000000E+00  0.00000000000E+00  0.12525980253E-10  0.17130000000E+03  0.17130000000E+03 0. -1.
       11    1    1    2    0    0  0.11357840082E+00 -0.17063539416E-01  0.28579323010E+00  0.30800852116E+00  0.51109989000E-03 0. -1.
     -623    1    1    2    0    0 -0.20547384070E-01  0.63659665998E-01  0.72810795020E-01  0.17130002854E+03  0.17130000000E+03 0. -1.
      622    1    1    2    0    0 -0.93031016752E-01 -0.46596126583E-01  0.36413959422E+01  0.36919629436E+01  0.60000000000E+00 0. -1.
</event>
<event>
 5   0  0.1014700E+04  0.9118800E+02  0.7818608E-02  0.1180000E+00
       11   -1    0    0    0    0  0.00000000000E+00  0.00000000000E+00  0.39999999673E+01  0.40000000000E+01  0.51109989000E-03 0.  1.
     -623   -1    0    0    0    0  0.00000000000E+00  0.00000000000E+00  0.12525980253E-10  0.17130000000E+03  0.17130000000E+03 0.  1.
       11    1    1    2    0    0 -0.66818632035E-01 -0.18201297109E-01  0.12185567287E+00  0.14016091837E+00  0.51109989000E-03 0.  1.
     -623    1    1    2    0    0  0.93636397922E-01  0.49638108624E-01  0.65494226772E-01  0.17130004530E+03  0.17130000000E+03 0.  1.
      622    1    1    2    0    0 -0.26817765887E-01 -0.31436811515E-01  0.38126500677E+01  0.38597937775E+01  0.60000000000E+00 0.  1.
</event>
<event>
 5   0  0.1014700E+04  0.9118800E+02  0.7818608E-02  0.1180000E+00
       11   -1    0    0    0    0  0.00000000000E+00  0.00000000000E+00  0.39999999673E+01  0.40000000000E+01  0.51109989000E-03 0.  1.
     -623   -1    0    0    0    0  0.00000000000E+00  0.00000000000E+00  0.12525980253E-10  0.17130000000E+03  0.17130000000E+03 0. -1.
       11    1    1    2    0    0  0.21474680226E-01 -0.40579103940E-01  0.26520772240E+00  0.26915278712E+00  0.51109989000E-03 0.  1.
     -623    1    1    2    0    0 -0.87464489695E-01 -0.43693395390E-01  0.54100397237E-01  0.17130003644E+03  0.17130000000E+03 0. -1.
      622    1    1    2    0    0  0.65989809469E-01  0.84272499331E-01  0.36806918477E+01  0.37308107681E+01  0.60000000000E+00 0.  1.
</event>
<event>
 5   0  0.1014700E+04  0.9118800E+02  0.7818608E-02  0.1180000E+00
       11   -1    0    0    0    0  0.00000000000E+00  0.00000000000E+00  0.39999999673E+01  0.40000000000E+01  0.51109989000E-03 0.  1.
     -623   -1    0    0    0    0  0.00000000000E+00  0.00000000000E+00  0.12525980253E-10  0.17130000000E+03  0.17130000000E+03 0. -1.
       11    1    1    2    0    0 -0.85404822746E-02  0.19541919235E-01  0.46417172403E-01  0.51084650931E-01  0.51109989000E-03 0.  1.
     -623    1    1    2    0    0 -0.46841582780E-01 -0.14059826609E-01  0.50927252722E-01  0.17130001455E+03  0.17130000000E+03 0. -1.
      622    1    1    2    0    0  0.55382065055E-01 -0.54820926264E-02  0.39026555422E+01  0.39489007974E+01  0.60000000000E+00 0.  1.
</event>
<event>
 5   0  0.1014700E+04  0.9118800E+02  0.7818608E-02  0.1180000E+00
       11   -1    0    0    0    0  0.00000000000E+00  0.00000000000E+00  0.39999999673E+01  0.40000000000E+01  0.51109989000E-03 0. -1.
     -623   -1    0    0    0    0  0.00000000000E+00  0.00000000000E+00  0.12525980253E-10  0.17130000000E+03  0.17130000000E+03 0.  1.
       11    1    1    2    0    0  0.45143556552E-01 -0.12503933568E+00  0.62652790876E+00  0.64047658649E+00  0.51109989000E-03 0. -1.
     -623    1    1    2    0    0 -0.13000500111E-01  0.21845258976E+00  0.69594917647E-01  0.17130015392E+03  0.17130000000E+03 0.  1.
      622    1    1    2    0    0 -0.32143056441E-01 -0.93413254080E-01  0.33038771410E+01  0.33593694906E+01  0.60000000000E+00 0. -1.
</event>
<event>
 5   0  0.1014700E+04  0.9118800E+02  0.7818608E-02  0.1180000E+00
       11   -1    0    0    0    0  0.00000000000E+00  0.00000000000E+00  0.39999999673E+01  0.40000000000E+01  0.51109989000E-03 0.  1.
     -623   -1    0    0    0    0  0.00000000000E+00  0.00000000000E+00  0.12525980253E-10  0.17130000000E+03  0.17130000000E+03 0. -1.
       11    1    1    2    0    0  0.13332010361E-01 -0.44582986690E-01  0.48455730470E+00  0.48678684038E+00  0.51109989000E-03 0.  1.
     -623    1    1    2    0    0  0.12168759936E-01  0.81215780221E-01  0.54160244303E-01  0.17130002825E+03  0.17130000000E+03 0. -1.
      622    1    1    2    0    0 -0.25500770297E-01 -0.36632793531E-01  0.34612824184E+01  0.35131849127E+01  0.60000000000E+00 0.  1.
</event>
<event>
 5   0  0.1014700E+04  0.9118800E+02  0.7818608E-02  0.1180000E+00
       11   -1    0    0    0    0  0.00000000000E+00  0.00000000000E+00  0.39999999673E+01  0.40000000000E+01  0.51109989000E-03 0.  1.
     -623   -1    0    0    0    0  0.00000000000E+00  0.00000000000E+00  0.12525980253E-10  0.17130000000E+03  0.17130000000E+03 0. -1.
       11    1    1    2    0    0  0.99890999364E-01 -0.38307777344E-01  0.10920247915E+00  0.15287622521E+00  0.51109989000E-03 0.  1.
     -623    1    1    2    0    0  0.10098889085E-01  0.11574055954E+00  0.93196992551E-01  0.17130006475E+03  0.17130000000E+03 0. -1.
      622    1    1    2    0    0 -0.10998988845E+00 -0.77432782198E-01  0.37976004957E+01  0.38470590242E+01  0.60000000000E+00 0.  1.
</event>
<event>
 5   0  0.1014700E+04  0.9118800E+02  0.7818608E-02  0.1180000E+00
       11   -1    0    0    0    0  0.00000000000E+00  0.00000000000E+00  0.39999999673E+01  0.40000000000E+01  0.51109989000E-03 0. -1.
     -623   -1    0    0    0    0  0.00000000000E+00  0.00000000000E+00  0.12525980253E-10  0.17130000000E+03  0.17130000000E+03 0. -1.
       11    1    1    2    0    0  0.82372503823E-01 -0.30176930645E-01  0.91413084063E-01  0.12669842024E+00  0.51109989000E-03 0. -1.
     -623    1    1    2    0    0 -0.35170302812E-01 -0.36546370468E-02  0.82503987934E-01  0.17130002352E+03  0.17130000000E+03 0. -1.
      622    1    1    2    0    0 -0.47202201010E-01  0.33831567692E-01  0.38260828954E+01  0.38732780619E+01  0.60000000000E+00 0. -1.
</event>
<event>
 5   0  0.1014700E+04  0.9118800E+02  0.7818608E-02  0.1180000E+00
       11   -1    0    0    0    0  0.00000000000E+00  0.00000000000E+00  0.39999999673E+01  0.40000000000E+01  0.51109989000E-03 0.  1.
     -623   -1    0    0    0    0  0.00000000000E+00  0.00000000000E+00  0.12525980253E-10  0.17130000000E+03  0.17130000000E+03 0.  1.
       11    1    1    2    0    0 -0.28906431922E-01 -0.24650737574E-01  0.37676454699E-01  0.53507168955E-01  0.51109989000E-03 0.  1.
     -623    1    1    2    0    0  0.62010006687E-03  0.32155401049E-01  0.61831579618E-01  0.17130001418E+03  0.17130000000E+03 0.  1.
      622    1    1    2    0    0  0.28286331856E-01 -0.75046634757E-02  0.39004919330E+01  0.39464786527E+01  0.60000000000E+00 0.  1.
</event>
<event>
 5   0  0.1014700E+04  0.9118800E+02  0.7818608E-02  0.1180000E+00
       11   -1    0    0    0    0  0.00000000000E+00  0.00000000000E+00  0.39999999673E+01  0.40000000000E+01  0.51109989000E-03 0.  1.
     -623   -1    0    0    0    0  0.00000000000E+00  0.00000000000E+00  0.12525980253E-10  0.17130000000E+03  0.17130000000E+03 0.  1.
       11    1    1    2    0    0  0.13738080807E+00  0.15558772944E+00  0.10295798609E+01  0.10502932825E+01  0.51109989000E-03 0.  1.
     -623    1    1    2    0    0 -0.97510076764E-01 -0.24748389883E+00  0.84351105564E-01  0.17130022730E+03  0.17130000000E+03 0.  1.
      622    1    1    2    0    0 -0.39870731310E-01  0.91896169391E-01  0.28860690009E+01  0.29494794217E+01  0.60000000000E+00 0.  1.
</event>
<event>
 5   0  0.1014700E+04  0.9118800E+02  0.7818608E-02  0.1180000E+00
       11   -1    0    0    0    0  0.00000000000E+00  0.00000000000E+00  0.39999999673E+01  0.40000000000E+01  0.51109989000E-03 0.  1.
     -623   -1    0    0    0    0  0.00000000000E+00  0.00000000000E+00  0.12525980253E-10  0.17130000000E+03  0.17130000000E+03 0. -1.
       11    1    1    2    0    0 -0.10447053530E-01 -0.11255381381E-01  0.33571778187E-01  0.36920861965E-01  0.51109989000E-03 0.  1.
     -623    1    1    2    0    0  0.24130983408E-01  0.40770679253E-01  0.49180435251E-01  0.17130001361E+03  0.17130000000E+03 0. -1.
      622    1    1    2    0    0 -0.13683929878E-01 -0.29515297872E-01  0.39172477539E+01  0.39630655266E+01  0.60000000000E+00 0.  1.
</event>
<event>
 5   0  0.1014700E+04  0.9118800E+02  0.7818608E-02  0.1180000E+00
       11   -1    0    0    0    0  0.00000000000E+00  0.00000000000E+00  0.39999999673E+01  0.40000000000E+01  0.51109989000E-03 0. -1.
     -623   -1    0    0    0    0  0.00000000000E+00  0.00000000000E+00  0.12525980253E-10  0.17130000000E+03  0.17130000000E+03 0. -1.
       11    1    1    2    0    0  0.38318610545E-01  0.15726544627E+00  0.45855818853E+00  0.48628860772E+00  0.51109989000E-03 0. -1.
     -623    1    1    2    0    0 -0.28807415792E+00 -0.19015808288E+00  0.88891691508E-01  0.17130037084E+03  0.17130000000E+03 0. -1.
      622    1    1    2    0    0  0.24975554737E+00  0.32892636614E-01  0.34525500873E+01  0.35133405563E+01  0.60000000000E+00 0. -1.
</event>
<event>
 5   0  0.1014700E+04  0.9118800E+02  0.7818608E-02  0.1180000E+00
       11   -1    0    0    0    0  0.00000000000E+00  0.00000000000E+00  0.39999999673E+01  0.40000000000E+01  0.51109989000E-03 0. -1.
     -623   -1    0    0    0    0  0.00000000000E+00  0.00000000000E+00  0.12525980253E-10  0.17130000000E+03  0.17130000000E+03 0.  1.
       11    1    1    2    0    0 -0.66655830266E-01  0.11718580720E+00 -0.17087860248E-01  0.13589617105E+00  0.51109989000E-03 0. -1.
     -623    1    1    2    0    0  0.32842105884E-01 -0.22559274141E+00  0.20181431597E+00  0.17130027058E+03  0.17130000000E+03 0.  1.
      622    1    1    2    0    0  0.33813724382E-01  0.10840693421E+00  0.38152735116E+01  0.38638332521E+01  0.60000000000E+00 0. -1.
</event>
<event>
 5   0  0.1014700E+04  0.9118800E+02  0.7818608E-02  0.1180000E+00
       11   -1    0    0    0    0  0.00000000000E+00  0.00000000000E+00  0.39999999673E+01  0.40000000000E+01  0.51109989000E-03 0. -1.
     -623   -1    0    0    0    0  0.00000000000E+00  0.00000000000E+00  0.12525980253E-10  0.17130000000E+03  0.17130000000E+03 0. -1.
       11    1    1    2    0    0  0.36672943807E-01  0.21993004392E-01  0.10071768006E+01  0.10080843049E+01  0.51109989000E-03 0. -1.
     -623    1    1    2    0    0  0.59483820901E-01 -0.66254140040E-01  0.63634685136E-01  0.17130003496E+03  0.17130000000E+03 0. -1.
      622    1    1    2    0    0 -0.96156764708E-01  0.44261135648E-01  0.29291884817E+01  0.29918807350E+01  0.60000000000E+00 0.  1.
</event>
<event>
 5   0  0.1014700E+04  0.9118800E+02  0.7818608E-02  0.1180000E+00
       11   -1    0    0    0    0  0.00000000000E+00  0.00000000000E+00  0.39999999673E+01  0.40000000000E+01  0.51109989000E-03 0. -1.
     -623   -1    0    0    0    0  0.00000000000E+00  0.00000000000E+00  0.12525980253E-10  0.17130000000E+03  0.17130000000E+03 0. -1.
       11    1    1    2    0    0 -0.30874560693E-01 -0.10068029925E+00  0.56787039766E+00  0.57755243131E+00  0.51109989000E-03 0. -1.
     -623    1    1    2    0    0  0.21857673114E-01 -0.45397764036E-01  0.65886886419E-01  0.17130002008E+03  0.17130000000E+03 0. -1.
      622    1    1    2    0    0  0.90168875788E-02  0.14607806328E+00  0.33662426833E+01  0.34224274876E+01  0.60000000000E+00 0. -1.
</event>
<event>
 5   0  0.1014700E+04  0.9118800E+02  0.7818608E-02  0.1180000E+00
       11   -1    0    0    0    0  0.00000000000E+00  0.00000000000E+00  0.39999999673E+01  0.40000000000E+01  0.51109989000E-03 0. -1.
     -623   -1    0    0    0    0  0.00000000000E+00  0.00000000000E+00  0.12525980253E-10  0.17130000000E+03  0.17130000000E+03 0.  1.
       11    1    1    2    0    0 -0.12511968281E-01  0.10107245957E-02 -0.16981355967E-01  0.21123413267E-01  0.51109989000E-03 0. -1.
     -623    1    1    2    0    0  0.27509333848E-01 -0.17529061599E-01  0.83690879904E-01  0.17130002355E+03  0.17130000000E+03 0.  1.
      622    1    1    2    0    0 -0.14997365567E-01  0.16518337003E-01  0.39332904434E+01  0.39788530368E+01  0.60000000000E+00 0. -1.
</event>
<event>
 5   0  0.1014700E+04  0.9118800E+02  0.7818608E-02  0.1180000E+00
       11   -1    0    0    0    0  0.00000000000E+00  0.00000000000E+00  0.39999999673E+01  0.40000000000E+01  0.51109989000E-03 0.  1.
     -623   -1    0    0    0    0  0.00000000000E+00  0.00000000000E+00  0.12525980253E-10  0.17130000000E+03  0.17130000000E+03 0. -1.
       11    1    1    2    0    0  0.12584452861E+00  0.79972809223E-01  0.30393819018E+00  0.33854273034E+00  0.51109989000E-03 0.  1.
     -623    1    1    2    0    0 -0.69336002297E-01 -0.23322796872E-01  0.85023422227E-01  0.17130003672E+03  0.17130000000E+03 0. -1.
      622    1    1    2    0    0 -0.56508526312E-01 -0.56650012351E-01  0.36110383550E+01  0.36614205492E+01  0.60000000000E+00 0.  1.
</event>
<event>
 5   0  0.1014700E+04  0.9118800E+02  0.7818608E-02  0.1180000E+00
       11   -1    0    0    0    0  0.00000000000E+00  0.00000000000E+00  0.39999999673E+01  0.40000000000E+01  0.51109989000E-03 0.  1.
     -623   -1    0    0    0    0  0.00000000000E+00  0.00000000000E+00  0.12525980253E-10  0.17130000000E+03  0.17130000000E+03 0.  1.
       11    1    1    2    0    0 -0.21356507488E-01 -0.10153297935E-01  0.70931061638E-01  0.74770760316E-01  0.51109989000E-03 0.  1.
     -623    1    1    2    0    0  0.60156475584E-01 -0.49432792848E-01  0.50645133721E-01  0.17130002518E+03  0.17130000000E+03 0.  1.
      622    1    1    2    0    0 -0.38799968096E-01  0.59586090783E-01  0.38784237720E+01  0.39252040577E+01  0.60000000000E+00 0.  1.
</event>
<event>
 5   0  0.1014700E+04  0.9118800E+02  0.7818608E-02  0.1180000E+00
       11   -1    0    0    0    0  0.00000000000E+00  0.00000000000E+00  0.39999999673E+01  0.40000000000E+01  0.51109989000E-03 0. -1.
     -623   -1    0    0    0    0  0.00000000000E+00  0.00000000000E+00  0.12525980253E-10  0.17130000000E+03  0.17130000000E+03 0.  1.
       11    1    1    2    0    0  0.29576375143E+00  0.35896038640E+00  0.94851966792E+00  0.10564178043E+01  0.51109989000E-03 0. -1.
     -623    1    1    2    0    0 -0.11052540904E-01 -0.18962311983E+00  0.18901515407E+00  0.17130020959E+03  0.17130000000E+03 0.  1.
      622    1    1    2    0    0 -0.28471121052E+00 -0.16933726657E+00  0.28624651454E+01  0.29433726050E+01  0.60000000000E+00 0. -1.
</event>
<event>
 5   0  0.1014700E+04  0.9118800E+02  0.7818608E-02  0.1180000E+00
       11   -1    0    0    0    0  0.00000000000E+00  0.00000000000E+00  0.39999999673E+01  0.40000000000E+01  0.51109989000E-03 0. -1.
     -623   -1    0    0    0    0  0.00000000000E+00  0.00000000000E+00  0.12525980253E-10  0.17130000000E+03  0.17130000000E+03 0.  1.
       11    1    1    2    0    0  0.21966457345E-01 -0.15818644019E-01 -0.15278387940E-02  0.27117342446E-01  0.51109989000E-03 0. -1.
     -623    1    1    2    0    0 -0.64923891966E-02  0.37445514956E-02  0.74279136236E-01  0.17130001627E+03  0.17130000000E+03 0.  1.
      622    1    1    2    0    0 -0.15474068148E-01  0.12074092523E-01  0.39272486699E+01  0.39728663891E+01  0.60000000000E+00 0. -1.
</event>
<event>
 5   0  0.1014700E+04  0.9118800E+02  0.7818608E-02  0.1180000E+00
       11   -1    0    0    0    0  0.00000000000E+00  0.00000000000E+00  0.39999999673E+01  0.40000000000E+01  0.51109989000E-03 0.  1.
     -623   -1    0    0    0    0  0.00000000000E+00  0.00000000000E+00  0.12525980253E-10  0.17130000000E+03  0.17130000000E+03 0. -1.
       11    1    1    2    0    0 -0.10966234584E+00  0.13202542872E+00  0.56477327548E+00  0.59027591671E+00  0.51109989000E-03 0.  1.
     -623    1    1    2    0    0 -0.58669963703E-01  0.35189034788E+00  0.11846688591E+00  0.17130041244E+03  0.17130000000E+03 0. -1.
      622    1    1    2    0    0  0.16833230955E+00 -0.48391577660E+00  0.33167598060E+01  0.34093116396E+01  0.60000000000E+00 0.  1.
</event>
<event>
 5   0  0.1014700E+04  0.9118800E+02  0.7818608E-02  0.1180000E+00
       11   -1    0    0    0    0  0.00000000000E+00  0.00000000000E+00  0.39999999673E+01  0.40000000000E+01  0.51109989000E-03 0. -1.
     -623   -1    0    0    0    0  0.00000000000E+00  0.00000000000E+00  0.12525980253E-10  0.17130000000E+03  0.17130000000E+03 0.  1.
       11    1    1    2    0    0 -0.17332182287E-01 -0.36116491268E-02  0.85497711651E-02  0.19667444224E-01  0.51109989000E-03 0. -1.
     -623    1    1    2    0    0 -0.36708724455E-02 -0.29024154127E-02  0.56670842791E-01  0.17130000944E+03  0.17130000000E+03 0.  1.
      622    1    1    2    0    0  0.21003054733E-01  0.65140645394E-02  0.39347793534E+01  0.39803231177E+01  0.60000000000E+00 0. -1.
</event>
<event>
 5   0  0.1014700E+04  0.9118800E+02  0.7818608E-02  0.1180000E+00
       11   -1    0    0    0    0  0.00000000000E+00  0.00000000000E+00  0.39999999673E+01  0.40000000000E+01  0.51109989000E-03 0. -1.
     -623   -1    0    0    0    0  0.00000000000E+00  0.00000000000E+00  0.12525980253E-10  0.17130000000E+03  0.17130000000E+03 0.  1.
       11    1    1    2    0    0  0.45327926093E-02  0.59009297971E-01  0.89731778807E-01  0.10749277560E+00  0.51109989000E-03 0. -1.
     -623    1    1    2    0    0 -0.18188560307E-01 -0.52847713324E-01  0.64332278713E-01  0.17130002120E+03  0.17130000000E+03 0.  1.
      622    1    1    2    0    0  0.13655767698E-01 -0.61615846468E-02  0.38459359098E+01  0.38924860267E+01  0.60000000000E+00 0. -1.
</event>
<event>
 5   0  0.1014700E+04  0.9118800E+02  0.7818608E-02  0.1180000E+00
       11   -1    0    0    0    0  0.00000000000E+00  0.00000000000E+00  0.39999999673E+01  0.40000000000E+01  0.51109989000E-03 0.  1.
     -623   -1    0    0    0    0  0.00000000000E+00  0.00000000000E+00  0.12525980253E-10  0.17130000000E+03  0.17130000000E+03 0. -1.
       11    1    1    2    0    0  0.35996133786E-02 -0.32669725013E-02 -0.89925297813E-02  0.10235093524E-01  0.51109989000E-03 0.  1.
     -623    1    1    2    0    0  0.15645776442E-02  0.49193137847E-01  0.64891378904E-01  0.17130001936E+03  0.17130000000E+03 0. -1.
      622    1    1    2    0    0 -0.51641910228E-02 -0.45926165346E-01  0.39441011182E+01  0.39897455448E+01  0.60000000000E+00 0.  1.
</event>
<event>
 5   0  0.1014700E+04  0.9118800E+02  0.7818608E-02  0.1180000E+00
       11   -1    0    0    0    0  0.00000000000E+00  0.00000000000E+00  0.39999999673E+01  0.40000000000E+01  0.51109989000E-03 0.  1.
     -623   -1    0    0    0    0  0.00000000000E+00  0.00000000000E+00  0.12525980253E-10  0.17130000000E+03  0.17130000000E+03 0. -1.
       11    1    1    2    0    0 -0.51260814103E-01 -0.91457873600E-01  0.44082362568E+00  0.45312023116E+00  0.51109989000E-03 0.  1.
     -623    1    1    2    0    0  0.13284829282E+00  0.77778047800E-01  0.64475254649E-01  0.17130008131E+03  0.17130000000E+03 0. -1.
      622    1    1    2    0    0 -0.81587478720E-01  0.13679825800E-01  0.34947010870E+01  0.35467984637E+01  0.60000000000E+00 0.  1.
</event>
<event>
 5   0  0.1014700E+04  0.9118800E+02  0.7818608E-02  0.1180000E+00
       11   -1    0    0    0    0  0.00000000000E+00  0.00000000000E+00  0.39999999673E+01  0.40000000000E+01  0.51109989000E-03 0. -1.
     -623   -1    0    0    0    0  0.00000000000E+00  0.00000000000E+00  0.12525980253E-10  0.17130000000E+03  0.17130000000E+03 0. -1.
       11    1    1    2    0    0  0.67699646265E-01 -0.29212052542E-01  0.11309219420E+01  0.11333231164E+01  0.51109989000E-03 0. -1.
     -623    1    1    2    0    0 -0.23399699807E-01 -0.55059351656E-03  0.66417670626E-01  0.17130001448E+03  0.17130000000E+03 0. -1.
      622    1    1    2    0    0 -0.44299946458E-01  0.29762646059E-01  0.28026603548E+01  0.28666624086E+01  0.60000000000E+00 0. -1.
</event>
<event>
 5   0  0.1014700E+04  0.9118800E+02  0.7818608E-02  0.1180000E+00
       11   -1    0    0    0    0  0.00000000000E+00  0.00000000000E+00  0.39999999673E+01  0.40000000000E+01  0.51109989000E-03 0.  1.
     -623   -1    0    0    0    0  0.00000000000E+00  0.00000000000E+00  0.12525980253E-10  0.17130000000E+03  0.17130000000E+03 0. -1.
       11    1    1    2    0    0  0.12193486206E-01 -0.48673495895E-01  0.44596875107E+00  0.44878299707E+00  0.51109989000E-03 0.  1.
     -623    1    1    2    0    0  0.45004869295E-01  0.18886565481E+00  0.57265958235E-01  0.17130011960E+03  0.17130000000E+03 0. -1.
      622    1    1    2    0    0 -0.57198355501E-01 -0.14019215891E+00  0.34967652581E+01  0.35510974027E+01  0.60000000000E+00 0.  1.
</event>
<event>
 5   0  0.1014700E+04  0.9118800E+02  0.7818608E-02  0.1180000E+00
       11   -1    0    0    0    0  0.00000000000E+00  0.00000000000E+00  0.39999999673E+01  0.40000000000E+01  0.51109989000E-03 0.  1.
     -623   -1    0    0    0    0  0.00000000000E+00  0.00000000000E+00  0.12525980253E-10  0.17130000000E+03  0.17130000000E+03 0.  1.
       11    1    1    2    0    0  0.15690674734E+00 -0.18553375926E+00  0.60545625545E+00  0.65239561745E+00  0.51109989000E-03 0.  1.
     -623    1    1    2    0    0 -0.13257246746E+00  0.18239922128E+00  0.10142080099E+00  0.17130017843E+03  0.17130000000E+03 0.  1.
      622    1    1    2    0    0 -0.24334279884E-01  0.31345379717E-02  0.32931229109E+01  0.33474259497E+01  0.60000000000E+00 0.  0.
</event>
<event>
 5   0  0.1014700E+04  0.9118800E+02  0.7818608E-02  0.1180000E+00
       11   -1    0    0    0    0  0.00000000000E+00  0.00000000000E+00  0.39999999673E+01  0.40000000000E+01  0.51109989000E-03 0.  1.
     -623   -1    0    0    0    0  0.00000000000E+00  0.00000000000E+00  0.12525980253E-10  0.17130000000E+03  0.17130000000E+03 0.  1.
       11    1    1    2    0    0 -0.82574111707E-02  0.75890199033E-02 -0.11763627776E-01  0.16261064597E-01  0.51109989000E-03 0.  1.
     -623    1    1    2    0    0 -0.19178318399E-01  0.28274586351E-01  0.73745900119E-01  0.17130001928E+03  0.17130000000E+03 0.  1.
      622    1    1    2    0    0  0.27435729570E-01 -0.35863606254E-01  0.39380176950E+01  0.39837196543E+01  0.60000000000E+00 0.  1.
</event>
<event>
 5   0  0.1014700E+04  0.9118800E+02  0.7818608E-02  0.1180000E+00
       11   -1    0    0    0    0  0.00000000000E+00  0.00000000000E+00  0.39999999673E+01  0.40000000000E+01  0.51109989000E-03 0. -1.
     -623   -1    0    0    0    0  0.00000000000E+00  0.00000000000E+00  0.12525980253E-10  0.17130000000E+03  0.17130000000E+03 0.  1.
       11    1    1    2    0    0 -0.69964658756E-01 -0.99170140971E-01  0.73156707272E+00  0.74156618952E+00  0.51109989000E-03 0. -1.
     -623    1    1    2    0    0 -0.10064853976E-01  0.99293090735E-01  0.66759594819E-01  0.17130004208E+03  0.17130000000E+03 0.  1.
      622    1    1    2    0    0  0.80029512733E-01 -0.12294976364E-03  0.32016732998E+01  0.32583917286E+01  0.60000000000E+00 0. -1.
</event>
<event>
 5   0  0.1014700E+04  0.9118800E+02  0.7818608E-02  0.1180000E+00
       11   -1    0    0    0    0  0.00000000000E+00  0.00000000000E+00  0.39999999673E+01  0.40000000000E+01  0.51109989000E-03 0. -1.
     -623   -1    0    0    0    0  0.00000000000E+00  0.00000000000E+00  0.12525980253E-10  0.17130000000E+03  0.17130000000E+03 0.  1.
       11    1    1    2    0    0 -0.73326944667E-01 -0.10578646179E+00  0.37023922952E+00  0.39197571941E+00  0.51109989000E-03 0. -1.
     -623    1    1    2    0    0  0.89643713805E-01 -0.80451185595E-01  0.76950834473E-01  0.17130005963E+03  0.17130000000E+03 0.  1.
      622    1    1    2    0    0 -0.16316769138E-01  0.18623764738E+00  0.35528099034E+01  0.36079646489E+01  0.60000000000E+00 0. -1.
</event>
<event>
 5   0  0.1014700E+04  0.9118800E+02  0.7818608E-02  0.1180000E+00
       11   -1    0    0    0    0  0.00000000000E+00  0.00000000000E+00  0.39999999673E+01  0.40000000000E+01  0.51109989000E-03 0.  1.
     -623   -1    0    0    0    0  0.00000000000E+00  0.00000000000E+00  0.12525980253E-10  0.17130000000E+03  0.17130000000E+03 0.  1.
       11    1    1    2    0    0 -0.61221561562E-02 -0.24084835018E-02 -0.26221828259E-02  0.71006094562E-02  0.51109989000E-03 0.  1.
     -623    1    1    2    0    0 -0.26053872423E-01 -0.34957100989E-02  0.55206763203E-01  0.17130001091E+03  0.17130000000E+03 0.  1.
      622    1    1    2    0    0  0.32176028579E-01  0.59041936007E-02  0.39474153870E+01  0.39928884775E+01  0.60000000000E+00 0.  1.
</event>
<event>
 5   0  0.1014700E+04  0.9118800E+02  0.7818608E-02  0.1180000E+00
       11   -1    0    0    0    0  0.00000000000E+00  0.00000000000E+00  0.39999999673E+01  0.40000000000E+01  0.51109989000E-03 0. -1.
     -623   -1    0    0    0    0  0.00000000000E+00  0.00000000000E+00  0.12525980253E-10  0.17130000000E+03  0.17130000000E+03 0. -1.
       11    1    1    2    0    0  0.10828842684E-01  0.15475047863E-01  0.81527755543E-02  0.20578384596E-01  0.51109989000E-03 0. -1.
     -623    1    1    2    0    0 -0.19021740540E-01  0.54094950853E-02  0.57993370168E-01  0.17130001096E+03  0.17130000000E+03 0. -1.
      622    1    1    2    0    0  0.81928978559E-02 -0.20884542949E-01  0.39338538216E+01  0.39794106571E+01  0.60000000000E+00 0. -1.
</event>
<event>
 5   0  0.1014700E+04  0.9118800E+02  0.7818608E-02  0.1180000E+00
       11   -1    0    0    0    0  0.00000000000E+00  0.00000000000E+00  0.39999999673E+01  0.40000000000E+01  0.51109989000E-03 0. -1.
     -623   -1    0    0    0    0  0.00000000000E+00  0.00000000000E+00  0.12525980253E-10  0.17130000000E+03  0.17130000000E+03 0.  1.
       11    1    1    2    0    0  0.73669403596E-02  0.68553133431E-02  0.23525455649E+00  0.23547024165E+00  0.51109989000E-03 0. -1.
     -623    1    1    2    0    0  0.35168088340E-01  0.10845691213E-02  0.48600510948E-01  0.17130001051E+03  0.17130000000E+03 0.  1.
      622    1    1    2    0    0 -0.42535028700E-01 -0.79398824644E-02  0.37161448999E+01  0.37645192505E+01  0.60000000000E+00 0. -1.
</event>
<event>
 5   0  0.1014700E+04  0.9118800E+02  0.7818608E-02  0.1180000E+00
       11   -1    0    0    0    0  0.00000000000E+00  0.00000000000E+00  0.39999999673E+01  0.40000000000E+01  0.51109989000E-03 0.  1.
     -623   -1    0    0    0    0  0.00000000000E+00  0.00000000000E+00  0.12525980253E-10  0.17130000000E+03  0.17130000000E+03 0.  1.
       11    1    1    2    0    0 -0.30857952422E-01 -0.40334256166E-01  0.48887423035E+00  0.49150517777E+00  0.51109989000E-03 0.  1.
     -623    1    1    2    0    0 -0.67479064937E-02  0.12892303862E-01  0.54638622295E-01  0.17130000933E+03  0.17130000000E+03 0.  1.
      622    1    1    2    0    0  0.37605858916E-01  0.27441952304E-01  0.34564871147E+01  0.35084854903E+01  0.60000000000E+00 0.  1.
</event>
<event>
 5   0  0.1014700E+04  0.9118800E+02  0.7818608E-02  0.1180000E+00
       11   -1    0    0    0    0  0.00000000000E+00  0.00000000000E+00  0.39999999673E+01  0.40000000000E+01  0.51109989000E-03 0. -1.
     -623   -1    0    0    0    0  0.00000000000E+00  0.00000000000E+00  0.12525980253E-10  0.17130000000E+03  0.17130000000E+03 0.  1.
       11    1    1    2    0    0 -0.35325048340E-01  0.54922173305E-02  0.62124812146E+00  0.62227607469E+00  0.51109989000E-03 0. -1.
     -623    1    1    2    0    0  0.13090835610E+00 -0.10356166238E+00  0.57660128669E-01  0.17130009103E+03  0.17130000000E+03 0.  1.
      622    1    1    2    0    0 -0.95583307756E-01  0.98069445054E-01  0.33210917172E+01  0.33776328958E+01  0.60000000000E+00 0. -1.
</event>
<event>
 5   0  0.1014700E+04  0.9118800E+02  0.7818608E-02  0.1180000E+00
       11   -1    0    0    0    0  0.00000000000E+00  0.00000000000E+00  0.39999999673E+01  0.40000000000E+01  0.51109989000E-03 0.  1.
     -623   -1    0    0    0    0  0.00000000000E+00  0.00000000000E+00  0.12525980253E-10  0.17130000000E+03  0.17130000000E+03 0. -1.
       11    1    1    2    0    0 -0.10707485242E-01  0.38782412912E-02  0.21633078676E-02  0.11603108193E-01  0.51109989000E-03 0.  1.
     -623    1    1    2    0    0  0.10456572973E-01 -0.31257747819E-01  0.54936140334E-01  0.17130001198E+03  0.17130000000E+03 0. -1.
      622    1    1    2    0    0  0.25091226897E-03  0.27379506528E-01  0.39429005192E+01  0.39883849118E+01  0.60000000000E+00 0.  1.
</event>
<event>
 5   0  0.1014700E+04  0.9118800E+02  0.7818608E-02  0.1180000E+00
       11   -1    0    0    0    0  0.00000000000E+00  0.00000000000E+00  0.39999999673E+01  0.40000000000E+01  0.51109989000E-03 0.  1.
     -623   -1    0    0    0    0  0.00000000000E+00  0.00000000000E+00  0.12525980253E-10  0.17130000000E+03  0.17130000000E+03 0. -1.
       11    1    1    2    0    0  0.12249343774E-01  0.65331632970E-01  0.17562435926E+00  0.18778297441E+00  0.51109989000E-03 0.  1.
     -623    1    1    2    0    0  0.19660946199E-01 -0.91810809864E-01  0.59936327194E-01  0.17130003622E+03  0.17130000000E+03 0. -1.
      622    1    1    2    0    0 -0.31910289973E-01  0.26479176894E-01  0.37644392809E+01  0.38121808080E+01  0.60000000000E+00 0.  1.
</event>
<event>
 5   0  0.1014700E+04  0.9118800E+02  0.7818608E-02  0.1180000E+00
       11   -1    0    0    0    0  0.00000000000E+00  0.00000000000E+00  0.39999999673E+01  0.40000000000E+01  0.51109989000E-03 0.  1.
     -623   -1    0    0    0    0  0.00000000000E+00  0.00000000000E+00  0.12525980253E-10  0.17130000000E+03  0.17130000000E+03 0.  1.
       11    1    1    2    0    0  0.19510184466E-01  0.27116493128E-01  0.22232025588E-01  0.40130732392E-01  0.51109989000E-03 0.  1.
     -623    1    1    2    0    0 -0.63478981077E-01 -0.21223488605E-01  0.63895346008E-01  0.17130002499E+03  0.17130000000E+03 0.  1.
      622    1    1    2    0    0  0.43968796611E-01 -0.58930045235E-02  0.39138725958E+01  0.39598442745E+01  0.60000000000E+00 0.  1.
</event>
<event>
 5   0  0.1014700E+04  0.9118800E+02  0.7818608E-02  0.1180000E+00
       11   -1    0    0    0    0  0.00000000000E+00  0.00000000000E+00  0.39999999673E+01  0.40000000000E+01  0.51109989000E-03 0. -1.
     -623   -1    0    0    0    0  0.00000000000E+00  0.00000000000E+00  0.12525980253E-10  0.17130000000E+03  0.17130000000E+03 0. -1.
       11    1    1    2    0    0 -0.31614467779E-01 -0.49768013496E-02  0.81913280651E+00  0.81975792711E+00  0.51109989000E-03 0. -1.
     -623    1    1    2    0    0  0.43390140007E-01  0.26237059217E-01  0.57849531339E-01  0.17130001727E+03  0.17130000000E+03 0. -1.
      622    1    1    2    0    0 -0.11775672227E-01 -0.21260257867E-01  0.31230176295E+01  0.31802248001E+01  0.60000000000E+00 0. -1.
</event>
<event>
 5   0  0.1014700E+04  0.9118800E+02  0.7818608E-02  0.1180000E+00
       11   -1    0    0    0    0  0.00000000000E+00  0.00000000000E+00  0.39999999673E+01  0.40000000000E+01  0.51109989000E-03 0. -1.
     -623   -1    0    0    0    0  0.00000000000E+00  0.00000000000E+00  0.12525980253E-10  0.17130000000E+03  0.17130000000E+03 0.  1.
       11    1    1    2    0    0 -0.28935020433E-01  0.21575651127E-01  0.35583952414E+00  0.35766572703E+00  0.51109989000E-03 0. -1.
     -623    1    1    2    0    0  0.13984525124E-01 -0.42022155664E-01  0.51687914873E-01  0.17130001352E+03  0.17130000000E+03 0.  1.
      622    1    1    2    0    0  0.14950495309E-01  0.20446504537E-01  0.35924725283E+01  0.36423207497E+01  0.60000000000E+00 0. -1.
</event>
<event>
 5   0  0.1014700E+04  0.9118800E+02  0.7818608E-02  0.1180000E+00
       11   -1    0    0    0    0  0.00000000000E+00  0.00000000000E+00  0.39999999673E+01  0.40000000000E+01  0.51109989000E-03 0.  1.
     -623   -1    0    0    0    0  0.00000000000E+00  0.00000000000E+00  0.12525980253E-10  0.17130000000E+03  0.17130000000E+03 0.  1.
       11    1    1    2    0    0 -0.66656679935E-01 -0.70681139536E-01  0.46730214269E-01  0.10780960354E+00  0.51109989000E-03 0.  1.
     -623    1    1    2    0    0 -0.26754661490E-01  0.54961936519E-01  0.10881668875E+00  0.17130004547E+03  0.17130000000E+03 0.  1.
      622    1    1    2    0    0  0.93411341425E-01  0.15719203017E-01  0.38444530643E+01  0.38921449274E+01  0.60000000000E+00 0.  1.
</event>
<event>
 5   0  0.1014700E+04  0.9118800E+02  0.7818608E-02  0.1180000E+00
       11   -1    0    0    0    0  0.00000000000E+00  0.00000000000E+00  0.39999999673E+01  0.40000000000E+01  0.51109989000E-03 0. -1.
     -623   -1    0    0    0    0  0.00000000000E+00  0.00000000000E+00  0.12525980253E-10  0.17130000000E+03  0.17130000000E+03 0.  1.
       11    1    1    2    0    0 -0.32190227158E-01  0.34617804838E-01  0.11197286251E+00  0.12154335151E+00  0.51109989000E-03 0. -1.
     -623    1    1    2    0    0  0.40081840037E-01  0.20298048471E-01  0.56678842424E-01  0.17130001527E+03  0.17130000000E+03 0.  1.
      622    1    1    2    0    0 -0.78916128795E-02 -0.54915853308E-01  0.38313482624E+01  0.38784413798E+01  0.60000000000E+00 0. -1.
</event>
<event>
 5   0  0.1014700E+04  0.9118800E+02  0.7818608E-02  0.1180000E+00
       11   -1    0    0    0    0  0.00000000000E+00  0.00000000000E+00  0.39999999673E+01  0.40000000000E+01  0.51109989000E-03 0. -1.
     -623   -1    0    0    0    0  0.00000000000E+00  0.00000000000E+00  0.12525980253E-10  0.17130000000E+03  0.17130000000E+03 0.  1.
       11    1    1    2    0    0 -0.78923952510E-02  0.18262655625E-01  0.11067677739E+00  0.11245187757E+00  0.51109989000E-03 0. -1.
     -623    1    1    2    0    0 -0.49197067343E-01 -0.59278336449E-01  0.49023762156E-01  0.17130002434E+03  0.17130000000E+03 0.  1.
      622    1    1    2    0    0  0.57089462594E-01  0.41015680824E-01  0.38402994278E+01  0.38875237862E+01  0.60000000000E+00 0. -1.
</event>
<event>
 5   0  0.1014700E+04  0.9118800E+02  0.7818608E-02  0.1180000E+00
       11   -1    0    0    0    0  0.00000000000E+00  0.00000000000E+00  0.39999999673E+01  0.40000000000E+01  0.51109989000E-03 0.  1.
     -623   -1    0    0    0    0  0.00000000000E+00  0.00000000000E+00  0.12525980253E-10  0.17130000000E+03  0.17130000000E+03 0. -1.
       11    1    1    2    0    0 -0.56066201109E-01 -0.18510240768E-03  0.50093000057E+00  0.50405811159E+00  0.51109989000E-03 0.  1.
     -623    1    1    2    0    0  0.45781097653E-01 -0.10317974854E-01  0.55048073760E-01  0.17130001527E+03  0.17130000000E+03 0. -1.
      622    1    1    2    0    0  0.10285103455E-01  0.10503077262E-01  0.34440218930E+01  0.34959266150E+01  0.60000000000E+00 0.  1.
</event>
<event>
 5   0  0.1014700E+04  0.9118800E+02  0.7818608E-02  0.1180000E+00
       11   -1    0    0    0    0  0.00000000000E+00  0.00000000000E+00  0.39999999673E+01  0.40000000000E+01  0.51109989000E-03 0.  1.
     -623   -1    0    0    0    0  0.00000000000E+00  0.00000000000E+00  0.12525980253E-10  0.17130000000E+03  0.17130000000E+03 0.  1.
       11    1    1    2    0    0 -0.18874472235E-01  0.99923168902E-02  0.18782587246E-01  0.28445367034E-01  0.51109989000E-03 0.  1.
     -623    1    1    2    0    0  0.22890006734E-03 -0.16267934197E-01  0.55305752339E-01  0.17130000970E+03  0.17130000000E+03 0.  1.
      622    1    1    2    0    0  0.18645572167E-01  0.62756173064E-02  0.39259116278E+01  0.39715449324E+01  0.60000000000E+00 0.  1.
</event>
<event>
 5   0  0.1014700E+04  0.9118800E+02  0.7818608E-02  0.1180000E+00
       11   -1    0    0    0    0  0.00000000000E+00  0.00000000000E+00  0.39999999673E+01  0.40000000000E+01  0.51109989000E-03 0.  1.
     -623   -1    0    0    0    0  0.00000000000E+00  0.00000000000E+00  0.12525980253E-10  0.17130000000E+03  0.17130000000E+03 0.  1.
       11    1    1    2    0    0  0.25571835647E-01  0.32415381832E-01  0.58496577268E-01  0.71601581906E-01  0.51109989000E-03 0.  1.
     -623    1    1    2    0    0 -0.62828537800E-01 -0.16029081472E+00  0.61579776553E-01  0.17130009759E+03  0.17130000000E+03 0.  1.
      622    1    1    2    0    0  0.37256702154E-01  0.12787543288E+00  0.38799236135E+01  0.39283008331E+01  0.60000000000E+00 0.  1.
</event>
<event>
 5   0  0.1014700E+04  0.9118800E+02  0.7818608E-02  0.1180000E+00
       11   -1    0    0    0    0  0.00000000000E+00  0.00000000000E+00  0.39999999673E+01  0.40000000000E+01  0.51109989000E-03 0.  1.
     -623   -1    0    0    0    0  0.00000000000E+00  0.00000000000E+00  0.12525980253E-10  0.17130000000E+03  0.17130000000E+03 0. -1.
       11    1    1    2    0    0 -0.50339559751E-01 -0.24270093377E-01  0.43788325738E-01  0.70998502818E-01  0.51109989000E-03 0.  1.
     -623    1    1    2    0    0  0.33210024635E-01 -0.94467095983E-01  0.75193584430E-01  0.17130004577E+03  0.17130000000E+03 0. -1.
      622    1    1    2    0    0  0.17129535116E-01  0.11873718936E+00  0.38810180572E+01  0.39289557266E+01  0.60000000000E+00 0.  1.
</event>
<event>
 5   0  0.1014700E+04  0.9118800E+02  0.7818608E-02  0.1180000E+00
       11   -1    0    0    0    0  0.00000000000E+00  0.00000000000E+00  0.39999999673E+01  0.40000000000E+01  0.51109989000E-03 0.  1.
     -623   -1    0    0    0    0  0.00000000000E+00  0.00000000000E+00  0.12525980253E-10  0.17130000000E+03  0.17130000000E+03 0.  1.
       11    1    1    2    0    0  0.25338025735E-02 -0.15717540839E-01  0.21665955992E-02  0.16075341459E-01  0.51109989000E-03 0.  1.
     -623    1    1    2    0    0  0.24657385911E-01  0.42995605499E-01  0.59555498239E-01  0.17130001752E+03  0.17130000000E+03 0.  1.
      622    1    1    2    0    0 -0.27191188484E-01 -0.27278064660E-01  0.39382778735E+01  0.39839071353E+01  0.60000000000E+00 0.  1.
</event>
<event>
 5   0  0.1014700E+04  0.9118800E+02  0.7818608E-02  0.1180000E+00
       11   -1    0    0    0    0  0.00000000000E+00  0.00000000000E+00  0.39999999673E+01  0.40000000000E+01  0.51109989000E-03 0. -1.
     -623   -1    0    0    0    0  0.00000000000E+00  0.00000000000E+00  0.12525980253E-10  0.17130000000E+03  0.17130000000E+03 0.  1.
       11    1    1    2    0    0 -0.25562648988E-01  0.49898369193E-02  0.10721638874E-01  0.28170237113E-01  0.51109989000E-03 0. -1.
     -623    1    1    2    0    0  0.42078994143E-01 -0.14282472293E-01  0.63092591558E-01  0.17130001738E+03  0.17130000000E+03 0.  1.
      622    1    1    2    0    0 -0.16516345156E-01  0.92926353741E-02  0.39261857369E+01  0.39718123802E+01  0.60000000000E+00 0. -1.
</event>
<event>
 5   0  0.1014700E+04  0.9118800E+02  0.7818608E-02  0.1180000E+00
       11   -1    0    0    0    0  0.00000000000E+00  0.00000000000E+00  0.39999999673E+01  0.40000000000E+01  0.51109989000E-03 0. -1.
     -623   -1    0    0    0    0  0.00000000000E+00  0.00000000000E+00  0.12525980253E-10  0.17130000000E+03  0.17130000000E+03 0. -1.
       11    1    1    2    0    0 -0.17360268182E-01 -0.13789880648E-01  0.23617263848E-01  0.32397161826E-01  0.51109989000E-03 0. -1.
     -623    1    1    2    0    0  0.23591578382E-01 -0.68180402453E-02  0.54479332138E-01  0.17130001042E+03  0.17130000000E+03 0. -1.
      622    1    1    2    0    0 -0.62313102004E-02  0.20607920893E-01  0.39219033714E+01  0.39675924148E+01  0.60000000000E+00 0. -1.
</event>
<event>
 5   0  0.1014700E+04  0.9118800E+02  0.7818608E-02  0.1180000E+00
       11   -1    0    0    0    0  0.00000000000E+00  0.00000000000E+00  0.39999999673E+01  0.40000000000E+01  0.51109989000E-03 0. -1.
     -623   -1    0    0    0    0  0.00000000000E+00  0.00000000000E+00  0.12525980253E-10  0.17130000000E+03  0.17130000000E+03 0.  1.
       11    1    1    2    0    0 -0.62242090486E-02 -0.18183450946E-02  0.20753714179E-01  0.21749138597E-01  0.51109989000E-03 0. -1.
     -623    1    1    2    0    0  0.42062752120E-01  0.36821436742E-03  0.46676899550E-01  0.17130001152E+03  0.17130000000E+03 0.  1.
      622    1    1    2    0    0 -0.35838543071E-01  0.14501307272E-02  0.39325693536E+01  0.39782393373E+01  0.60000000000E+00 0. -1.
</event>
<event>
 5   0  0.1014700E+04  0.9118800E+02  0.7818608E-02  0.1180000E+00
       11   -1    0    0    0    0  0.00000000000E+00  0.00000000000E+00  0.39999999673E+01  0.40000000000E+01  0.51109989000E-03 0.  1.
     -623   -1    0    0    0    0  0.00000000000E+00  0.00000000000E+00  0.12525980253E-10  0.17130000000E+03  0.17130000000E+03 0. -1.
       11    1    1    2    0    0 -0.49632812530E-01 -0.83768949367E-01  0.38701260050E+00  0.39907351093E+00  0.51109989000E-03 0.  1.
     -623    1    1    2    0    0  0.13809501262E+00  0.11181502304E+00  0.63718371256E-01  0.17130010401E+03  0.17130000000E+03 0. -1.
      622    1    1    2    0    0 -0.88462200090E-01 -0.28046073675E-01  0.35492689956E+01  0.36008224819E+01  0.60000000000E+00 0.  1.
</event>
<event>
 5   0  0.1014700E+04  0.9118800E+02  0.7818608E-02  0.1180000E+00
       11   -1    0    0    0    0  0.00000000000E+00  0.00000000000E+00  0.39999999673E+01  0.40000000000E+01  0.51109989000E-03 0.  1.
     -623   -1    0    0    0    0  0.00000000000E+00  0.00000000000E+00  0.12525980253E-10  0.17130000000E+03  0.17130000000E+03 0. -1.
       11    1    1    2    0    0  0.21103048847E-01  0.70580035699E-01  0.17814667439E+00  0.19277805614E+00  0.51109989000E-03 0.  1.
     -623    1    1    2    0    0 -0.28979910415E-01 -0.38138497529E-01  0.62373678648E-01  0.17130001805E+03  0.17130000000E+03 0. -1.
      622    1    1    2    0    0  0.78768615688E-02 -0.32441538170E-01  0.37594796143E+01  0.38072038912E+01  0.60000000000E+00 0.  1.
</event>
<event>
 5   0  0.1014700E+04  0.9118800E+02  0.7818608E-02  0.1180000E+00
       11   -1    0    0    0    0  0.00000000000E+00  0.00000000000E+00  0.39999999673E+01  0.40000000000E+01  0.51109989000E-03 0.  1.
     -623   -1    0    0    0    0  0.00000000000E+00  0.00000000000E+00  0.12525980253E-10  0.17130000000E+03  0.17130000000E+03 0. -1.
       11    1    1    2    0    0 -0.23616602782E-01  0.60758517089E-01  0.21096248886E+00  0.22080483296E+00  0.51109989000E-03 0.  1.
     -623    1    1    2    0    0 -0.12027204127E-01 -0.66113815414E-01  0.57972861012E-01  0.17130002299E+03  0.17130000000E+03 0. -1.
      622    1    1    2    0    0  0.35643806909E-01  0.53552983244E-02  0.37310646175E+01  0.37791721766E+01  0.60000000000E+00 0.  1.
</event>
<event>
 5   0  0.1014700E+04  0.9118800E+02  0.7818608E-02  0.1180000E+00
       11   -1    0    0    0    0  0.00000000000E+00  0.00000000000E+00  0.39999999673E+01  0.40000000000E+01  0.51109989000E-03 0. -1.
     -623   -1    0    0    0    0  0.00000000000E+00  0.00000000000E+00  0.12525980253E-10  0.17130000000E+03  0.17130000000E+03 0. -1.
       11    1    1    2    0    0  0.19436915865E-02  0.16601577997E-02  0.52697741832E-01  0.52762176562E-01  0.51109989000E-03 0. -1.
     -623    1    1    2    0    0 -0.38829178141E-01 -0.37846080353E-01  0.46289619332E-01  0.17130001484E+03  0.17130000000E+03 0. -1.
      622    1    1    2    0    0  0.36885486555E-01  0.36185922553E-01  0.39010126062E+01  0.39472229876E+01  0.60000000000E+00 0. -1.
</event>
<event>
 5   0  0.1014700E+04  0.9118800E+02  0.7818608E-02  0.1180000E+00
       11   -1    0    0    0    0  0.00000000000E+00  0.00000000000E+00  0.39999999673E+01  0.40000000000E+01  0.51109989000E-03 0.  1.
     -623   -1    0    0    0    0  0.00000000000E+00  0.00000000000E+00  0.12525980253E-10  0.17130000000E+03  0.17130000000E+03 0.  1.
       11    1    1    2    0    0 -0.36529997628E-02 -0.36637096002E-02  0.13189814997E-01  0.14177433409E-01  0.51109989000E-03 0.  1.
     -623    1    1    2    0    0  0.15912323826E-01 -0.39620524259E-01  0.46675052115E-01  0.17130001168E+03  0.17130000000E+03 0.  1.
      622    1    1    2    0    0 -0.12259324064E-01  0.43284233860E-01  0.39401351003E+01  0.39858108867E+01  0.60000000000E+00 0.  1.
</event>
<event>
 5   0  0.1014700E+04  0.9118800E+02  0.7818608E-02  0.1180000E+00
       11   -1    0    0    0    0  0.00000000000E+00  0.00000000000E+00  0.39999999673E+01  0.40000000000E+01  0.51109989000E-03 0.  1.
     -623   -1    0    0    0    0  0.00000000000E+00  0.00000000000E+00  0.12525980253E-10  0.17130000000E+03  0.17130000000E+03 0.  1.
       11    1    1    2    0    0  0.14983475357E-02 -0.15273643275E-01  0.18484061692E-01  0.24030209819E-01  0.51109989000E-03 0.  1.
     -623    1    1    2    0    0 -0.14403943115E-01  0.21751945706E-01  0.51115059858E-01  0.17130000961E+03  0.17130000000E+03 0.  1.
      622    1    1    2    0    0  0.12905595579E-01 -0.64783024305E-02  0.39304008458E+01  0.39759601773E+01  0.60000000000E+00 0.  1.
</event>
<event>
 5   0  0.1014700E+04  0.9118800E+02  0.7818608E-02  0.1180000E+00
       11   -1    0    0    0    0  0.00000000000E+00  0.00000000000E+00  0.39999999673E+01  0.40000000000E+01  0.51109989000E-03 0. -1.
     -623   -1    0    0    0    0  0.00000000000E+00  0.00000000000E+00  0.12525980253E-10  0.17130000000E+03  0.17130000000E+03 0.  1.
       11    1    1    2    0    0 -0.16884062123E+00 -0.28362363285E-01  0.53550756162E+00  0.56221009311E+00  0.51109989000E-03 0. -1.
     -623    1    1    2    0    0  0.80723524579E-01  0.55047887356E-01  0.80766618373E-01  0.17130004691E+03  0.17130000000E+03 0.  1.
      622    1    1    2    0    0  0.88117096655E-01 -0.26685524071E-01  0.33837257874E+01  0.34377430015E+01  0.60000000000E+00 0. -1.
</event>
<event>
 5   0  0.1014700E+04  0.9118800E+02  0.7818608E-02  0.1180000E+00
       11   -1    0    0    0    0  0.00000000000E+00  0.00000000000E+00  0.39999999673E+01  0.40000000000E+01  0.51109989000E-03 0.  1.
     -623   -1    0    0    0    0  0.00000000000E+00  0.00000000000E+00  0.12525980253E-10  0.17130000000E+03  0.17130000000E+03 0. -1.
       11    1    1    2    0    0 -0.13987364975E-01  0.68602049594E-01  0.11091526508E+01  0.11113603158E+01  0.51109989000E-03 0.  1.
     -623    1    1    2    0    0  0.71311871770E-02 -0.65069270904E-01  0.65243717250E-01  0.17130002493E+03  0.17130000000E+03 0. -1.
      622    1    1    2    0    0  0.68561777976E-02 -0.35327786896E-02  0.28256035993E+01  0.28886147525E+01  0.60000000000E+00 0. -1.
</event>
<event>
 5   0  0.1014700E+04  0.9118800E+02  0.7818608E-02  0.1180000E+00
       11   -1    0    0    0    0  0.00000000000E+00  0.00000000000E+00  0.39999999673E+01  0.40000000000E+01  0.51109989000E-03 0. -1.
     -623   -1    0    0    0    0  0.00000000000E+00  0.00000000000E+00  0.12525980253E-10  0.17130000000E+03  0.17130000000E+03 0. -1.
       11    1    1    2    0    0 -0.77417318602E-02 -0.23257510493E-01  0.15063844273E+00  0.15262060102E+00  0.51109989000E-03 0. -1.
     -623    1    1    2    0    0  0.41369518577E-01  0.40291179323E-01  0.49259174917E-01  0.17130001682E+03  0.17130000000E+03 0. -1.
      622    1    1    2    0    0 -0.33627786717E-01 -0.17033668831E-01  0.38001023497E+01  0.38473625826E+01  0.60000000000E+00 0. -1.
</event>
<event>
 5   0  0.1014700E+04  0.9118800E+02  0.7818608E-02  0.1180000E+00
       11   -1    0    0    0    0  0.00000000000E+00  0.00000000000E+00  0.39999999673E+01  0.40000000000E+01  0.51109989000E-03 0. -1.
     -623   -1    0    0    0    0  0.00000000000E+00  0.00000000000E+00  0.12525980253E-10  0.17130000000E+03  0.17130000000E+03 0. -1.
       11    1    1    2    0    0  0.64866034551E-01  0.56702618616E-02  0.31201937200E+00  0.31874143758E+00  0.51109989000E-03 0. -1.
     -623    1    1    2    0    0  0.98393231877E-02 -0.45649937324E-01  0.56951984801E-01  0.17130001583E+03  0.17130000000E+03 0. -1.
      622    1    1    2    0    0 -0.74705357739E-01  0.39979675462E-01  0.36310286106E+01  0.36812427298E+01  0.60000000000E+00 0. -1.
</event>
<event>
 5   0  0.1014700E+04  0.9118800E+02  0.7818608E-02  0.1180000E+00
       11   -1    0    0    0    0  0.00000000000E+00  0.00000000000E+00  0.39999999673E+01  0.40000000000E+01  0.51109989000E-03 0.  1.
     -623   -1    0    0    0    0  0.00000000000E+00  0.00000000000E+00  0.12525980253E-10  0.17130000000E+03  0.17130000000E+03 0.  1.
       11    1    1    2    0    0 -0.12456536988E+00  0.77900058042E-01  0.29167675312E+00  0.32658925266E+00  0.51109989000E-03 0.  1.
     -623    1    1    2    0    0  0.16030303045E+00 -0.14612154922E+00  0.85223641166E-01  0.17130015853E+03  0.17130000000E+03 0.  1.
      622    1    1    2    0    0 -0.35737660572E-01  0.68221491179E-01  0.36230995731E+01  0.36732522196E+01  0.60000000000E+00 0.  1.
</event>
<event>
 5   0  0.1014700E+04  0.9118800E+02  0.7818608E-02  0.1180000E+00
       11   -1    0    0    0    0  0.00000000000E+00  0.00000000000E+00  0.39999999673E+01  0.40000000000E+01  0.51109989000E-03 0.  1.
     -623   -1    0    0    0    0  0.00000000000E+00  0.00000000000E+00  0.12525980253E-10  0.17130000000E+03  0.17130000000E+03 0. -1.
       11    1    1    2    0    0  0.12313093960E-01  0.79229510516E-03  0.10621256145E+00  0.10692805734E+00  0.51109989000E-03 0.  1.
     -623    1    1    2    0    0 -0.43422820974E-01  0.84888167244E-01  0.48343288363E-01  0.17130003336E+03  0.17130000000E+03 0. -1.
      622    1    1    2    0    0  0.31109727014E-01 -0.85680462349E-01  0.38454441175E+01  0.38930385842E+01  0.60000000000E+00 0.  1.
</event>
<event>
 5   0  0.1014700E+04  0.9118800E+02  0.7818608E-02  0.1180000E+00
       11   -1    0    0    0    0  0.00000000000E+00  0.00000000000E+00  0.39999999673E+01  0.40000000000E+01  0.51109989000E-03 0. -1.
     -623   -1    0    0    0    0  0.00000000000E+00  0.00000000000E+00  0.12525980253E-10  0.17130000000E+03  0.17130000000E+03 0.  1.
       11    1    1    2    0    0 -0.68657905722E-02  0.54454815455E-02  0.10820748711E-01  0.13933491067E-01  0.51109989000E-03 0. -1.
     -623    1    1    2    0    0  0.75245813800E-02 -0.33336787480E-01  0.48637932296E-01  0.17130001031E+03  0.17130000000E+03 0.  1.
      622    1    1    2    0    0 -0.65879080782E-03  0.27891305935E-01  0.39405412864E+01  0.39860561948E+01  0.60000000000E+00 0. -1.
</event>
<event>
 5   0  0.1014700E+04  0.9118800E+02  0.7818608E-02  0.1180000E+00
       11   -1    0    0    0    0  0.00000000000E+00  0.00000000000E+00  0.39999999673E+01  0.40000000000E+01  0.51109989000E-03 0.  1.
     -623   -1    0    0    0    0  0.00000000000E+00  0.00000000000E+00  0.12525980253E-10  0.17130000000E+03  0.17130000000E+03 0.  1.
       11    1    1    2    0    0  0.14665076286E+00  0.47776308576E-02  0.54232333505E-01  0.15643106860E+00  0.51109989000E-03 0.  1.
     -623    1    1    2    0    0  0.47499841777E-01 -0.53430124259E-01  0.15468479883E+00  0.17130008476E+03  0.17130000000E+03 0.  1.
      622    1    1    2    0    0 -0.19415060464E+00  0.48652493402E-01  0.37910828350E+01  0.38434841725E+01  0.60000000000E+00 0.  1.
</event>
<event>
 5   0  0.1014700E+04  0.9118800E+02  0.7818608E-02  0.1180000E+00
       11   -1    0    0    0    0  0.00000000000E+00  0.00000000000E+00  0.39999999673E+01  0.40000000000E+01  0.51109989000E-03 0. -1.
     -623   -1    0    0    0    0  0.00000000000E+00  0.00000000000E+00  0.12525980253E-10  0.17130000000E+03  0.17130000000E+03 0. -1.
       11    1    1    2    0    0 -0.27790172647E-01  0.55510043672E-01  0.27439748343E+00  0.28133236355E+00  0.51109989000E-03 0. -1.
     -623    1    1    2    0    0  0.65370548762E-01 -0.44627435912E-02  0.56228007746E-01  0.17130002176E+03  0.17130000000E+03 0. -1.
      622    1    1    2    0    0 -0.37580376115E-01 -0.51047300081E-01  0.36693744762E+01  0.37186458769E+01  0.60000000000E+00 0. -1.
</event>
<event>
 5   0  0.1014700E+04  0.9118800E+02  0.7818608E-02  0.1180000E+00
       11   -1    0    0    0    0  0.00000000000E+00  0.00000000000E+00  0.39999999673E+01  0.40000000000E+01  0.51109989000E-03 0. -1.
     -623   -1    0    0    0    0  0.00000000000E+00  0.00000000000E+00  0.12525980253E-10  0.17130000000E+03  0.17130000000E+03 0.  1.
       11    1    1    2    0    0  0.17016110012E+00 -0.34415627081E+00  0.10878952782E+01  0.11536527798E+01  0.51109989000E-03 0. -1.
     -623    1    1    2    0    0  0.16009174891E-01  0.65712002657E-01  0.15003084925E+00  0.17130007905E+03  0.17130000000E+03 0.  1.
      622    1    1    2    0    0 -0.18617027501E+00  0.27844426815E+00  0.27620738399E+01  0.28462681670E+01  0.60000000000E+00 0.  0.
</event>
<event>
 5   0  0.1014700E+04  0.9118800E+02  0.7818608E-02  0.1180000E+00
       11   -1    0    0    0    0  0.00000000000E+00  0.00000000000E+00  0.39999999673E+01  0.40000000000E+01  0.51109989000E-03 0.  1.
     -623   -1    0    0    0    0  0.00000000000E+00  0.00000000000E+00  0.12525980253E-10  0.17130000000E+03  0.17130000000E+03 0. -1.
       11    1    1    2    0    0  0.25458318520E+00  0.70538279696E-01  0.76143225414E+00  0.80595755841E+00  0.51109989000E-03 0.  1.
     -623    1    1    2    0    0 -0.12665917381E+00 -0.65609908649E-01  0.10409218102E+00  0.17130009102E+03  0.17130000000E+03 0. -1.
      622    1    1    2    0    0 -0.12792401139E+00 -0.49283710467E-02  0.31344755322E+01  0.31939514247E+01  0.60000000000E+00 0.  1.
</event>
<event>
 5   0  0.1014700E+04  0.9118800E+02  0.7818608E-02  0.1180000E+00
       11   -1    0    0    0    0  0.00000000000E+00  0.00000000000E+00  0.39999999673E+01  0.40000000000E+01  0.51109989000E-03 0. -1.
     -623   -1    0    0    0    0  0.00000000000E+00  0.00000000000E+00  0.12525980253E-10  0.17130000000E+03  0.17130000000E+03 0. -1.
       11    1    1    2    0    0  0.41395917694E-01  0.16804275221E-01  0.25002333000E+00  0.25398411847E+00  0.51109989000E-03 0. -1.
     -623    1    1    2    0    0 -0.53403990286E-01  0.21051396436E-01  0.52555200795E-01  0.17130001768E+03  0.17130000000E+03 0. -1.
      622    1    1    2    0    0  0.12008072592E-01 -0.37855671657E-01  0.36974214366E+01  0.37459982015E+01  0.60000000000E+00 0. -1.
</event>
<event>
 5   0  0.1014700E+04  0.9118800E+02  0.7818608E-02  0.1180000E+00
       11   -1    0    0    0    0  0.00000000000E+00  0.00000000000E+00  0.39999999673E+01  0.40000000000E+01  0.51109989000E-03 0.  1.
     -623   -1    0    0    0    0  0.00000000000E+00  0.00000000000E+00  0.12525980253E-10  0.17130000000E+03  0.17130000000E+03 0.  1.
       11    1    1    2    0    0  0.38722586904E-01 -0.17614362859E-01  0.12806638589E+00  0.13494800825E+00  0.51109989000E-03 0.  1.
     -623    1    1    2    0    0  0.49456101926E-02  0.29143026781E-01  0.54015099916E-01  0.17130001107E+03  0.17130000000E+03 0.  1.
      622    1    1    2    0    0 -0.43668197097E-01 -0.11528663922E-01  0.38179184816E+01  0.38650409252E+01  0.60000000000E+00 0.  1.
</event>
<event>
 5   0  0.1014700E+04  0.9118800E+02  0.7818608E-02  0.1180000E+00
       11   -1    0    0    0    0  0.00000000000E+00  0.00000000000E+00  0.39999999673E+01  0.40000000000E+01  0.51109989000E-03 0. -1.
     -623   -1    0    0    0    0  0.00000000000E+00  0.00000000000E+00  0.12525980253E-10  0.17130000000E+03  0.17130000000E+03 0.  1.
       11    1    1    2    0    0 -0.58415708356E-01 -0.38011654225E-01 -0.21454375683E-02  0.69729082612E-01  0.51109989000E-03 0. -1.
     -623    1    1    2    0    0  0.43180934844E-01  0.35185291940E-01  0.11802406092E+00  0.17130004971E+03  0.17130000000E+03 0.  1.
      622    1    1    2    0    0  0.15234773512E-01  0.28263622852E-02  0.38841213440E+01  0.39302212026E+01  0.60000000000E+00 0. -1.
</event>
<event>
 5   0  0.1014700E+04  0.9118800E+02  0.7818608E-02  0.1180000E+00
       11   -1    0    0    0    0  0.00000000000E+00  0.00000000000E+00  0.39999999673E+01  0.40000000000E+01  0.51109989000E-03 0.  1.
     -623   -1    0    0    0    0  0.00000000000E+00  0.00000000000E+00  0.12525980253E-10  0.17130000000E+03  0.17130000000E+03 0.  1.
       11    1    1    2    0    0 -0.26217444173E-01  0.11515235816E-01  0.19792527402E-01  0.34813221611E-01  0.51109989000E-03 0.  1.
     -623    1    1    2    0    0  0.32023494619E-01 -0.16000896250E-01  0.60700148940E-01  0.17130001450E+03  0.17130000000E+03 0.  1.
      622    1    1    2    0    0 -0.58060504454E-02  0.44856604345E-02  0.39195072910E+01  0.39651722832E+01  0.60000000000E+00 0.  1.
</event>
<event>
 5   0  0.1014700E+04  0.9118800E+02  0.7818608E-02  0.1180000E+00
       11   -1    0    0    0    0  0.00000000000E+00  0.00000000000E+00  0.39999999673E+01  0.40000000000E+01  0.51109989000E-03 0.  1.
     -623   -1    0    0    0    0  0.00000000000E+00  0.00000000000E+00  0.12525980253E-10  0.17130000000E+03  0.17130000000E+03 0. -1.
       11    1    1    2    0    0 -0.18761591326E-01  0.27919364585E-01  0.11808425842E+00  0.12278290409E+00  0.51109989000E-03 0.  1.
     -623    1    1    2    0    0 -0.19196903499E-01 -0.19741365420E-01  0.51611905405E-01  0.17130000999E+03  0.17130000000E+03 0. -1.
      622    1    1    2    0    0  0.37958494825E-01 -0.81779991655E-02  0.38303038035E+01  0.38772071075E+01  0.60000000000E+00 0.  1.
</event>
<event>
 5   0  0.1014700E+04  0.9118800E+02  0.7818608E-02  0.1180000E+00
       11   -1    0    0    0    0  0.00000000000E+00  0.00000000000E+00  0.39999999673E+01  0.40000000000E+01  0.51109989000E-03 0. -1.
     -623   -1    0    0    0    0  0.00000000000E+00  0.00000000000E+00  0.12525980253E-10  0.17130000000E+03  0.17130000000E+03 0. -1.
       11    1    1    2    0    0 -0.27623291271E-02 -0.40011806861E-01  0.16034592640E+00  0.16528657685E+00  0.51109989000E-03 0. -1.
     -623    1    1    2    0    0 -0.23903829709E-02  0.67081725994E-01  0.52292739425E-01  0.17130002113E+03  0.17130000000E+03 0. -1.
      622    1    1    2    0    0  0.51527120980E-02 -0.27069919133E-01  0.37873613015E+01  0.38346922900E+01  0.60000000000E+00 0. -1.
</event>
<event>
 5   0  0.1014700E+04  0.9118800E+02  0.7818608E-02  0.1180000E+00
       11   -1    0    0    0    0  0.00000000000E+00  0.00000000000E+00  0.39999999673E+01  0.40000000000E+01  0.51109989000E-03 0.  1.
     -623   -1    0    0    0    0  0.00000000000E+00  0.00000000000E+00  0.12525980253E-10  0.17130000000E+03  0.17130000000E+03 0.  1.
       11    1    1    2    0    0  0.54405006107E-01 -0.48791003517E-01  0.21739004060E-01  0.76245080066E-01  0.51109989000E-03 0.  1.
     -623    1    1    2    0    0 -0.73196460973E-02  0.83921364805E-02  0.10117878167E+00  0.17130003024E+03  0.17130000000E+03 0.  1.
      622    1    1    2    0    0 -0.47085360009E-01  0.40398867036E-01  0.38770821816E+01  0.39237246772E+01  0.60000000000E+00 0.  1.
</event>
<event>
 5   0  0.1014700E+04  0.9118800E+02  0.7818608E-02  0.1180000E+00
       11   -1    0    0    0    0  0.00000000000E+00  0.00000000000E+00  0.39999999673E+01  0.40000000000E+01  0.51109989000E-03 0.  1.
     -623   -1    0    0    0    0  0.00000000000E+00  0.00000000000E+00  0.12525980253E-10  0.17130000000E+03  0.17130000000E+03 0. -1.
       11    1    1    2    0    0 -0.17354566035E-01 -0.51508429834E-01  0.15925320925E-01  0.56640766024E-01  0.51109989000E-03 0.  1.
     -623    1    1    2    0    0 -0.15878066652E-01  0.72361191800E-01  0.86865033936E-01  0.17130003804E+03  0.17130000000E+03 0. -1.
      622    1    1    2    0    0  0.33232632687E-01 -0.20852761966E-01  0.38972096125E+01  0.39433211902E+01  0.60000000000E+00 0.  1.
</event>
<event>
 5   0  0.1014700E+04  0.9118800E+02  0.7818608E-02  0.1180000E+00
       11   -1    0    0    0    0  0.00000000000E+00  0.00000000000E+00  0.39999999673E+01  0.40000000000E+01  0.51109989000E-03 0. -1.
     -623   -1    0    0    0    0  0.00000000000E+00  0.00000000000E+00  0.12525980253E-10  0.17130000000E+03  0.17130000000E+03 0.  1.
       11    1    1    2    0    0  0.39606999675E-01  0.16896110386E-01 -0.22524040848E-01  0.48598216094E-01  0.51109989000E-03 0. -1.
     -623    1    1    2    0    0 -0.49376149968E-02 -0.63678807124E-01  0.11742819727E+00  0.17130005216E+03  0.17130000000E+03 0.  1.
      622    1    1    2    0    0 -0.34669384678E-01  0.46782696737E-01  0.39050958109E+01  0.39513496276E+01  0.60000000000E+00 0. -1.
</event>
<event>
 5   0  0.1014700E+04  0.9118800E+02  0.7818608E-02  0.1180000E+00
       11   -1    0    0    0    0  0.00000000000E+00  0.00000000000E+00  0.39999999673E+01  0.40000000000E+01  0.51109989000E-03 0.  1.
     -623   -1    0    0    0    0  0.00000000000E+00  0.00000000000E+00  0.12525980253E-10  0.17130000000E+03  0.17130000000E+03 0.  1.
       11    1    1    2    0    0  0.11174213182E+00 -0.15115006663E+00  0.50914646163E+00  0.54273660949E+00  0.51109989000E-03 0.  1.
     -623    1    1    2    0    0 -0.16479170238E-02  0.11779465215E+00  0.88060501666E-01  0.17130006314E+03  0.17130000000E+03 0.  1.
      622    1    1    2    0    0 -0.11009421480E+00  0.33355414489E-01  0.34027930041E+01  0.34572002471E+01  0.60000000000E+00 0.  1.
</event>
<event>
 5   0  0.1014700E+04  0.9118800E+02  0.7818608E-02  0.1180000E+00
       11   -1    0    0    0    0  0.00000000000E+00  0.00000000000E+00  0.39999999673E+01  0.40000000000E+01  0.51109989000E-03 0. -1.
     -623   -1    0    0    0    0  0.00000000000E+00  0.00000000000E+00  0.12525980253E-10  0.17130000000E+03  0.17130000000E+03 0. -1.
       11    1    1    2    0    0  0.20625405732E-01 -0.42972067701E-01  0.12631084744E+00  0.13500628640E+00  0.51109989000E-03 0. -1.
     -623    1    1    2    0    0  0.15706099413E-01  0.53322294821E-01  0.55756506494E-01  0.17130001809E+03  0.17130000000E+03 0. -1.
      622    1    1    2    0    0 -0.36331505145E-01 -0.10350227120E-01  0.38179326134E+01  0.38649756204E+01  0.60000000000E+00 0. -1.
</event>
<event>
 5   0  0.1014700E+04  0.9118800E+02  0.7818608E-02  0.1180000E+00
       11   -1    0    0    0    0  0.00000000000E+00  0.00000000000E+00  0.39999999673E+01  0.40000000000E+01  0.51109989000E-03 0.  1.
     -623   -1    0    0    0    0  0.00000000000E+00  0.00000000000E+00  0.12525980253E-10  0.17130000000E+03  0.17130000000E+03 0. -1.
       11    1    1    2    0    0 -0.28226634726E-01  0.36043004593E-02  0.19280405764E+00  0.19489330351E+00  0.51109989000E-03 0.  1.
     -623    1    1    2    0    0  0.34488194321E-01  0.33449768825E-01  0.49893927151E-01  0.17130001400E+03  0.17130000000E+03 0. -1.
      622    1    1    2    0    0 -0.62615595958E-02 -0.37054069285E-01  0.37573019826E+01  0.38050926926E+01  0.60000000000E+00 0.  1.
</event>
<event>
 5   0  0.1014700E+04  0.9118800E+02  0.7818608E-02  0.1180000E+00
       11   -1    0    0    0    0  0.00000000000E+00  0.00000000000E+00  0.39999999673E+01  0.40000000000E+01  0.51109989000E-03 0. -1.
     -623   -1    0    0    0    0  0.00000000000E+00  0.00000000000E+00  0.12525980253E-10  0.17130000000E+03  0.17130000000E+03 0. -1.
       11    1    1    2    0    0 -0.89169506000E-01  0.97401819369E-01 -0.25309404486E-01  0.13445870145E+00  0.51109989000E-03 0. -1.
     -623    1    1    2    0    0  0.63515254175E-01  0.88953897231E-01  0.21142097542E+00  0.17130016534E+03  0.17130000000E+03 0. -1.
      622    1    1    2    0    0  0.25654251825E-01 -0.18635571660E+00  0.38138883964E+01  0.38653759577E+01  0.60000000000E+00 0. -1.
</event>
<event>
 5   0  0.1014700E+04  0.9118800E+02  0.7818608E-02  0.1180000E+00
       11   -1    0    0    0    0  0.00000000000E+00  0.00000000000E+00  0.39999999673E+01  0.40000000000E+01  0.51109989000E-03 0.  1.
     -623   -1    0    0    0    0  0.00000000000E+00  0.00000000000E+00  0.12525980253E-10  0.17130000000E+03  0.17130000000E+03 0.  1.
       11    1    1    2    0    0  0.17965070807E-02 -0.83496046639E-02  0.31946747150E-03  0.85619283196E-02  0.51109989000E-03 0.  1.
     -623    1    1    2    0    0 -0.52607347233E-02  0.23135877698E-01  0.53636012570E-01  0.17130001004E+03  0.17130000000E+03 0.  1.
      622    1    1    2    0    0  0.34642276425E-02 -0.14786273034E-01  0.39460444873E+01  0.39914280315E+01  0.60000000000E+00 0.  1.
</event>
<event>
 5   0  0.1014700E+04  0.9118800E+02  0.7818608E-02  0.1180000E+00
       11   -1    0    0    0    0  0.00000000000E+00  0.00000000000E+00  0.39999999673E+01  0.40000000000E+01  0.51109989000E-03 0. -1.
     -623   -1    0    0    0    0  0.00000000000E+00  0.00000000000E+00  0.12525980253E-10  0.17130000000E+03  0.17130000000E+03 0.  1.
       11    1    1    2    0    0  0.39739860272E-02 -0.45524457287E-01  0.99390912017E-01  0.10939416525E+00  0.51109989000E-03 0. -1.
     -623    1    1    2    0    0  0.18090051075E-01  0.64795251672E-02  0.56819164840E-01  0.17130001050E+03  0.17130000000E+03 0.  1.
      622    1    1    2    0    0 -0.22064037103E-01  0.39044932120E-01  0.38437898905E+01  0.38905953337E+01  0.60000000000E+00 0. -1.
</event>
<event>
 5   0  0.1014700E+04  0.9118800E+02  0.7818608E-02  0.1180000E+00
       11   -1    0    0    0    0  0.00000000000E+00  0.00000000000E+00  0.39999999673E+01  0.40000000000E+01  0.51109989000E-03 0.  1.
     -623   -1    0    0    0    0  0.00000000000E+00  0.00000000000E+00  0.12525980253E-10  0.17130000000E+03  0.17130000000E+03 0. -1.
       11    1    1    2    0    0 -0.16528896271E-01  0.22421124826E-01  0.15073271625E+00  0.15328576000E+00  0.51109989000E-03 0.  1.
     -623    1    1    2    0    0  0.84883217954E-02 -0.45711936509E-01  0.49727902807E-01  0.17130001353E+03  0.17130000000E+03 0. -1.
      622    1    1    2    0    0  0.80405744753E-02  0.23290811683E-01  0.37995393483E+01  0.38467007126E+01  0.60000000000E+00 0.  1.
</event>
<event>
 5   0  0.1014700E+04  0.9118800E+02  0.7818608E-02  0.1180000E+00
       11   -1    0    0    0    0  0.00000000000E+00  0.00000000000E+00  0.39999999673E+01  0.40000000000E+01  0.51109989000E-03 0.  1.
     -623   -1    0    0    0    0  0.00000000000E+00  0.00000000000E+00  0.12525980253E-10  0.17130000000E+03  0.17130000000E+03 0.  1.
       11    1    1    2    0    0 -0.21707844339E-01 -0.15716822678E-01  0.47124835204E-02  0.27216130198E-01  0.51109989000E-03 0.  1.
     -623    1    1    2    0    0  0.36317401924E-01  0.39879942133E-01  0.68197079339E-01  0.17130002207E+03  0.17130000000E+03 0.  1.
      622    1    1    2    0    0 -0.14609557585E-01 -0.24163119455E-01  0.39270904045E+01  0.39727618027E+01  0.60000000000E+00 0.  1.
</event>
<event>
 5   0  0.1014700E+04  0.9118800E+02  0.7818608E-02  0.1180000E+00
       11   -1    0    0    0    0  0.00000000000E+00  0.00000000000E+00  0.39999999673E+01  0.40000000000E+01  0.51109989000E-03 0. -1.
     -623   -1    0    0    0    0  0.00000000000E+00  0.00000000000E+00  0.12525980253E-10  0.17130000000E+03  0.17130000000E+03 0. -1.
       11    1    1    2    0    0 -0.10081438304E+00 -0.84661908661E-01  0.63912535327E+00  0.65254322234E+00  0.51109989000E-03 0. -1.
     -623    1    1    2    0    0 -0.11956091400E+00 -0.66583647008E-02  0.76339924645E-01  0.17130005886E+03  0.17130000000E+03 0. -1.
      622    1    1    2    0    0  0.22037529704E+00  0.91320273361E-01  0.32845346894E+01  0.33473979133E+01  0.60000000000E+00 0. -1.
</event>
<event>
 5   0  0.1014700E+04  0.9118800E+02  0.7818608E-02  0.1180000E+00
       11   -1    0    0    0    0  0.00000000000E+00  0.00000000000E+00  0.39999999673E+01  0.40000000000E+01  0.51109989000E-03 0.  1.
     -623   -1    0    0    0    0  0.00000000000E+00  0.00000000000E+00  0.12525980253E-10  0.17130000000E+03  0.17130000000E+03 0.  1.
       11    1    1    2    0    0  0.22200259917E-01 -0.25779376546E-01  0.20712950936E+00  0.20990550890E+00  0.51109989000E-03 0.  1.
     -623    1    1    2    0    0 -0.59378063972E-01  0.63224594485E-03  0.50856770014E-01  0.17130001784E+03  0.17130000000E+03 0.  1.
      622    1    1    2    0    0  0.37177804055E-01  0.25147130601E-01  0.37420136880E+01  0.37900766494E+01  0.60000000000E+00 0.  1.
</event>
<event>
 5   0  0.1014700E+04  0.9118800E+02  0.7818608E-02  0.1180000E+00
       11   -1    0    0    0    0  0.00000000000E+00  0.00000000000E+00  0.39999999673E+01  0.40000000000E+01  0.51109989000E-03 0.  1.
     -623   -1    0    0    0    0  0.00000000000E+00  0.00000000000E+00  0.12525980253E-10  0.17130000000E+03  0.17130000000E+03 0.  1.
       11    1    1    2    0    0 -0.15913701402E-01 -0.23073040901E-01 -0.11839839320E-01  0.30431137458E-01  0.51109989000E-03 0.  1.
     -623    1    1    2    0    0  0.48025572919E-02  0.65335983995E-01  0.88156869409E-01  0.17130003521E+03  0.17130000000E+03 0.  1.
      622    1    1    2    0    0  0.11111144111E-01 -0.42262943094E-01  0.39236829373E+01  0.39695336510E+01  0.60000000000E+00 0.  1.
</event>
<event>
 5   0  0.1014700E+04  0.9118800E+02  0.7818608E-02  0.1180000E+00
       11   -1    0    0    0    0  0.00000000000E+00  0.00000000000E+00  0.39999999673E+01  0.40000000000E+01  0.51109989000E-03 0. -1.
     -623   -1    0    0    0    0  0.00000000000E+00  0.00000000000E+00  0.12525980253E-10  0.17130000000E+03  0.17130000000E+03 0.  1.
       11    1    1    2    0    0 -0.91434733797E-02 -0.84709034801E-01  0.13804414618E+00  0.16222105658E+00  0.51109989000E-03 0. -1.
     -623    1    1    2    0    0  0.83370655803E-01  0.11475565315E+00  0.72290015804E-01  0.17130007398E+03  0.17130000000E+03 0.  1.
      622    1    1    2    0    0 -0.74227182423E-01 -0.30046618350E-01  0.37896658054E+01  0.38377049639E+01  0.60000000000E+00 0. -1.
</event>
<event>
 5   0  0.1014700E+04  0.9118800E+02  0.7818608E-02  0.1180000E+00
       11   -1    0    0    0    0  0.00000000000E+00  0.00000000000E+00  0.39999999673E+01  0.40000000000E+01  0.51109989000E-03 0. -1.
     -623   -1    0    0    0    0  0.00000000000E+00  0.00000000000E+00  0.12525980253E-10  0.17130000000E+03  0.17130000000E+03 0. -1.
       11    1    1    2    0    0 -0.20553082367E-01 -0.11457536087E-01  0.33252892790E-01  0.40739666542E-01  0.51109989000E-03 0. -1.
     -623    1    1    2    0    0  0.41118275853E-01 -0.14887645304E-01  0.53370609597E-01  0.17130001390E+03  0.17130000000E+03 0. -1.
      622    1    1    2    0    0 -0.20565193486E-01  0.26345181391E-01  0.39133764650E+01  0.39592464374E+01  0.60000000000E+00 0. -1.
</event>
<event>
 5   0  0.1014700E+04  0.9118800E+02  0.7818608E-02  0.1180000E+00
       11   -1    0    0    0    0  0.00000000000E+00  0.00000000000E+00  0.39999999673E+01  0.40000000000E+01  0.51109989000E-03 0. -1.
     -623   -1    0    0    0    0  0.00000000000E+00  0.00000000000E+00  0.12525980253E-10  0.17130000000E+03  0.17130000000E+03 0. -1.
       11    1    1    2    0    0  0.38599269338E-01 -0.43626176821E-01  0.18697756422E+00  0.19584181791E+00  0.51109989000E-03 0. -1.
     -623    1    1    2    0    0 -0.18745970195E-01 -0.10123522223E-01  0.56926791512E-01  0.17130001078E+03  0.17130000000E+03 0. -1.
      622    1    1    2    0    0 -0.19853299143E-01  0.53749699043E-01  0.37560956116E+01  0.38041473982E+01  0.60000000000E+00 0. -1.
</event>
<event>
 5   0  0.1014700E+04  0.9118800E+02  0.7818608E-02  0.1180000E+00
       11   -1    0    0    0    0  0.00000000000E+00  0.00000000000E+00  0.39999999673E+01  0.40000000000E+01  0.51109989000E-03 0. -1.
     -623   -1    0    0    0    0  0.00000000000E+00  0.00000000000E+00  0.12525980253E-10  0.17130000000E+03  0.17130000000E+03 0.  1.
       11    1    1    2    0    0 -0.58617731445E-01 -0.69846882325E-01  0.19918854790E+00  0.21906840084E+00  0.51109989000E-03 0. -1.
     -623    1    1    2    0    0  0.96502488580E-01  0.36211579319E-01  0.68179629778E-01  0.17130004458E+03  0.17130000000E+03 0.  1.
      622    1    1    2    0    0 -0.37884757135E-01  0.33635303005E-01  0.37326317897E+01  0.37808870210E+01  0.60000000000E+00 0. -1.
</event>
<event>
 5   0  0.1014700E+04  0.9118800E+02  0.7818608E-02  0.1180000E+00
       11   -1    0    0    0    0  0.00000000000E+00  0.00000000000E+00  0.39999999673E+01  0.40000000000E+01  0.51109989000E-03 0.  1.
     -623   -1    0    0    0    0  0.00000000000E+00  0.00000000000E+00  0.12525980253E-10  0.17130000000E+03  0.17130000000E+03 0.  1.
       11    1    1    2    0    0  0.38858116268E-01  0.43828356590E-01  0.43984248807E+00  0.44372576393E+00  0.51109989000E-03 0.  1.
     -623    1    1    2    0    0 -0.12000709619E-01 -0.72730965531E-01  0.55110560950E-01  0.17130002473E+03  0.17130000000E+03 0.  1.
      622    1    1    2    0    0 -0.26857406649E-01  0.28902608941E-01  0.35050469183E+01  0.35562495105E+01  0.60000000000E+00 0.  1.
</event>
<event>
 5   0  0.1014700E+04  0.9118800E+02  0.7818608E-02  0.1180000E+00
       11   -1    0    0    0    0  0.00000000000E+00  0.00000000000E+00  0.39999999673E+01  0.40000000000E+01  0.51109989000E-03 0. -1.
     -623   -1    0    0    0    0  0.00000000000E+00  0.00000000000E+00  0.12525980253E-10  0.17130000000E+03  0.17130000000E+03 0.  1.
       11    1    1    2    0    0  0.18654792465E-01  0.22925320399E-01  0.21861201003E-01  0.36766083960E-01  0.51109989000E-03 0. -1.
     -623    1    1    2    0    0  0.46269433681E-02 -0.27709727046E-01  0.60670869829E-01  0.17130001305E+03  0.17130000000E+03 0.  1.
      622    1    1    2    0    0 -0.23281735834E-01  0.47844066465E-02  0.39174678965E+01  0.39632208682E+01  0.60000000000E+00 0. -1.
</event>
<event>
 5   0  0.1014700E+04  0.9118800E+02  0.7818608E-02  0.1180000E+00
       11   -1    0    0    0    0  0.00000000000E+00  0.00000000000E+00  0.39999999673E+01  0.40000000000E+01  0.51109989000E-03 0.  1.
     -623   -1    0    0    0    0  0.00000000000E+00  0.00000000000E+00  0.12525980253E-10  0.17130000000E+03  0.17130000000E+03 0. -1.
       11    1    1    2    0    0  0.22315781822E-01 -0.51801510831E-02  0.33449322911E-02  0.23157674294E-01  0.51109989000E-03 0.  1.
     -623    1    1    2    0    0  0.69662034505E-02  0.15181610742E-01  0.65470553132E-01  0.17130001333E+03  0.17130000000E+03 0. -1.
      622    1    1    2    0    0 -0.29281985273E-01 -0.10001459659E-01  0.39311844819E+01  0.39768290000E+01  0.60000000000E+00 0.  1.
</event>
<event>
 5   0  0.1014700E+04  0.9118800E+02  0.7818608E-02  0.1180000E+00
       11   -1    0    0    0    0  0.00000000000E+00  0.00000000000E+00  0.39999999673E+01  0.40000000000E+01  0.51109989000E-03 0.  1.
     -623   -1    0    0    0    0  0.00000000000E+00  0.00000000000E+00  0.12525980253E-10  0.17130000000E+03  0.17130000000E+03 0.  1.
       11    1    1    2    0    0 -0.35069010174E-01 -0.80284321257E-01  0.84432711819E-01  0.12167395680E+00  0.51109989000E-03 0.  1.
     -623    1    1    2    0    0 -0.11921194369E-01  0.25164926649E-01  0.84642182915E-01  0.17130002317E+03  0.17130000000E+03 0.  1.
      622    1    1    2    0    0  0.46990204542E-01  0.55119394608E-01  0.38309250726E+01  0.38783028684E+01  0.60000000000E+00 0.  1.
</event>
<event>
 5   0  0.1014700E+04  0.9118800E+02  0.7818608E-02  0.1180000E+00
       11   -1    0    0    0    0  0.00000000000E+00  0.00000000000E+00  0.39999999673E+01  0.40000000000E+01  0.51109989000E-03 0. -1.
     -623   -1    0    0    0    0  0.00000000000E+00  0.00000000000E+00  0.12525980253E-10  0.17130000000E+03  0.17130000000E+03 0. -1.
       11    1    1    2    0    0 -0.81580827418E-02  0.49733805333E-01 -0.11106554636E-01  0.51610294357E-01  0.51109989000E-03 0. -1.
     -623    1    1    2    0    0 -0.24070302845E-01 -0.69173016504E-01  0.10880358549E+00  0.17130005021E+03  0.17130000000E+03 0. -1.
      622    1    1    2    0    0  0.32228385587E-01  0.19439211170E-01  0.39023029365E+01  0.39483394940E+01  0.60000000000E+00 0. -1.
</event>
<event>
 5   0  0.1014700E+04  0.9118800E+02  0.7818608E-02  0.1180000E+00
       11   -1    0    0    0    0  0.00000000000E+00  0.00000000000E+00  0.39999999673E+01  0.40000000000E+01  0.51109989000E-03 0. -1.
     -623   -1    0    0    0    0  0.00000000000E+00  0.00000000000E+00  0.12525980253E-10  0.17130000000E+03  0.17130000000E+03 0. -1.
       11    1    1    2    0    0 -0.63872584149E-01 -0.19382551276E-01  0.99765840814E-01  0.12003697146E+00  0.51109989000E-03 0. -1.
     -623    1    1    2    0    0  0.45728004010E-01 -0.53119161895E-01  0.67700722626E-01  0.17130002772E+03  0.17130000000E+03 0. -1.
      622    1    1    2    0    0  0.18144580139E-01  0.72501713171E-01  0.38325334039E+01  0.38799353109E+01  0.60000000000E+00 0. -1.
</event>
<event>
 5   0  0.1014700E+04  0.9118800E+02  0.7818608E-02  0.1180000E+00
       11   -1    0    0    0    0  0.00000000000E+00  0.00000000000E+00  0.39999999673E+01  0.40000000000E+01  0.51109989000E-03 0. -1.
     -623   -1    0    0    0    0  0.00000000000E+00  0.00000000000E+00  0.12525980253E-10  0.17130000000E+03  0.17130000000E+03 0. -1.
       11    1    1    2    0    0  0.38886838425E-01 -0.69948406558E-01  0.68946529042E-01  0.10563546219E+00  0.51109989000E-03 0. -1.
     -623    1    1    2    0    0 -0.99440354948E-01  0.15286362297E+00  0.84676642075E-01  0.17130011800E+03  0.17130000000E+03 0. -1.
      622    1    1    2    0    0  0.60553516523E-01 -0.82915216412E-01  0.38463767962E+01  0.38942465408E+01  0.60000000000E+00 0. -1.
</event>
<event>
 5   0  0.1014700E+04  0.9118800E+02  0.7818608E-02  0.1180000E+00
       11   -1    0    0    0    0  0.00000000000E+00  0.00000000000E+00  0.39999999673E+01  0.40000000000E+01  0.51109989000E-03 0.  1.
     -623   -1    0    0    0    0  0.00000000000E+00  0.00000000000E+00  0.12525980253E-10  0.17130000000E+03  0.17130000000E+03 0.  1.
       11    1    1    2    0    0  0.70593495047E-01  0.15653523131E+00  0.72766007354E-01  0.18649898990E+00  0.51109989000E-03 0.  1.
     -623    1    1    2    0    0  0.70786577370E-02 -0.16361684066E+00  0.16219423455E+00  0.17130015507E+03  0.17130000000E+03 0.  1.
      622    1    1    2    0    0 -0.77672152784E-01  0.70816093465E-02  0.37650397255E+01  0.38133459385E+01  0.60000000000E+00 0.  1.
</event>
<event>
 5   0  0.1014700E+04  0.9118800E+02  0.7818608E-02  0.1180000E+00
       11   -1    0    0    0    0  0.00000000000E+00  0.00000000000E+00  0.39999999673E+01  0.40000000000E+01  0.51109989000E-03 0.  1.
     -623   -1    0    0    0    0  0.00000000000E+00  0.00000000000E+00  0.12525980253E-10  0.17130000000E+03  0.17130000000E+03 0. -1.
       11    1    1    2    0    0 -0.17976153981E-01  0.10160604160E-01 -0.60944757865E-02  0.21535641320E-01  0.51109989000E-03 0.  1.
     -623    1    1    2    0    0  0.12487287941E+00  0.56295064989E-01  0.75220720581E-01  0.17130007128E+03  0.17130000000E+03 0. -1.
      622    1    1    2    0    0 -0.10689672543E+00 -0.66455669149E-01  0.39308737226E+01  0.39783930787E+01  0.60000000000E+00 0.  1.
</event>
<event>
 5   0  0.1014700E+04  0.9118800E+02  0.7818608E-02  0.1180000E+00
       11   -1    0    0    0    0  0.00000000000E+00  0.00000000000E+00  0.39999999673E+01  0.40000000000E+01  0.51109989000E-03 0.  1.
     -623   -1    0    0    0    0  0.00000000000E+00  0.00000000000E+00  0.12525980253E-10  0.17130000000E+03  0.17130000000E+03 0. -1.
       11    1    1    2    0    0 -0.16972188677E-02  0.36685075579E-01  0.50763016138E-02  0.37077019600E-01  0.51109989000E-03 0.  1.
     -623    1    1    2    0    0 -0.23916550909E-01 -0.31546648159E-02  0.77931933815E-01  0.17130001943E+03  0.17130000000E+03 0. -1.
      622    1    1    2    0    0  0.25613769777E-01 -0.33530410763E-01  0.39169917319E+01  0.39629035544E+01  0.60000000000E+00 0.  1.
</event>
<event>
 5   0  0.1014700E+04  0.9118800E+02  0.7818608E-02  0.1180000E+00
       11   -1    0    0    0    0  0.00000000000E+00  0.00000000000E+00  0.39999999673E+01  0.40000000000E+01  0.51109989000E-03 0.  1.
     -623   -1    0    0    0    0  0.00000000000E+00  0.00000000000E+00  0.12525980253E-10  0.17130000000E+03  0.17130000000E+03 0. -1.
       11    1    1    2    0    0  0.12694341336E+00  0.31953825807E-01  0.81659529206E+00  0.82702104532E+00  0.51109989000E-03 0.  1.
     -623    1    1    2    0    0  0.33389959709E-01 -0.34061925863E-01  0.71822035831E-01  0.17130002170E+03  0.17130000000E+03 0. -1.
      622    1    1    2    0    0 -0.16033337307E+00  0.21081000558E-02  0.31115826395E+01  0.31729572573E+01  0.60000000000E+00 0.  0.
</event>
<event>
 5   0  0.1014700E+04  0.9118800E+02  0.7818608E-02  0.1180000E+00
       11   -1    0    0    0    0  0.00000000000E+00  0.00000000000E+00  0.39999999673E+01  0.40000000000E+01  0.51109989000E-03 0. -1.
     -623   -1    0    0    0    0  0.00000000000E+00  0.00000000000E+00  0.12525980253E-10  0.17130000000E+03  0.17130000000E+03 0. -1.
       11    1    1    2    0    0  0.10476453060E-01  0.94900021537E-01  0.24320014443E-01  0.98526618140E-01  0.51109989000E-03 0. -1.
     -623    1    1    2    0    0  0.19151910804E-01 -0.13346567800E-01  0.12164098923E+00  0.17130004478E+03  0.17130000000E+03 0. -1.
      622    1    1    2    0    0 -0.29628363864E-01 -0.81553453737E-01  0.38540389637E+01  0.39014286024E+01  0.60000000000E+00 0. -1.
</event>
<event>
 5   0  0.1014700E+04  0.9118800E+02  0.7818608E-02  0.1180000E+00
       11   -1    0    0    0    0  0.00000000000E+00  0.00000000000E+00  0.39999999673E+01  0.40000000000E+01  0.51109989000E-03 0. -1.
     -623   -1    0    0    0    0  0.00000000000E+00  0.00000000000E+00  0.12525980253E-10  0.17130000000E+03  0.17130000000E+03 0.  1.
       11    1    1    2    0    0  0.71958528537E-01  0.61000983223E-01  0.10898204358E+00  0.14414054541E+00  0.51109989000E-03 0. -1.
     -623    1    1    2    0    0 -0.12802383638E+00 -0.11821151078E-01  0.82926105592E-01  0.17130006832E+03  0.17130000000E+03 0.  1.
      622    1    1    2    0    0  0.56065307846E-01 -0.49179832145E-01  0.38080918182E+01  0.38557911342E+01  0.60000000000E+00 0. -1.
</event>
<event>
 5   0  0.1014700E+04  0.9118800E+02  0.7818608E-02  0.1180000E+00
       11   -1    0    0    0    0  0.00000000000E+00  0.00000000000E+00  0.39999999673E+01  0.40000000000E+01  0.51109989000E-03 0. -1.
     -623   -1    0    0    0    0  0.00000000000E+00  0.00000000000E+00  0.12525980253E-10  0.17130000000E+03  0.17130000000E+03 0.  1.
       11    1    1    2    0    0  0.80109259384E-01  0.39983003070E-01  0.96366750654E-01  0.13154066226E+00  0.51109989000E-03 0. -1.
     -623    1    1    2    0    0 -0.10731245202E+00 -0.25350713071E-01  0.82167989184E-01  0.17130005520E+03  0.17130000000E+03 0.  1.
      622    1    1    2    0    0  0.27203192635E-01 -0.14632289999E-01  0.38214652275E+01  0.38684041416E+01  0.60000000000E+00 0. -1.
</event>
<event>
 5   0  0.1014700E+04  0.9118800E+02  0.7818608E-02  0.1180000E+00
       11   -1    0    0    0    0  0.00000000000E+00  0.00000000000E+00  0.39999999673E+01  0.40000000000E+01  0.51109989000E-03 0. -1.
     -623   -1    0    0    0    0  0.00000000000E+00  0.00000000000E+00  0.12525980253E-10  0.17130000000E+03  0.17130000000E+03 0. -1.
       11    1    1    2    0    0  0.31147263416E-01  0.52542204168E-01  0.31650605255E+00  0.32234636304E+00  0.51109989000E-03 0. -1.
     -623    1    1    2    0    0  0.85323363303E-02 -0.45371768453E-01  0.55354054498E-01  0.17130001516E+03  0.17130000000E+03 0. -1.
      622    1    1    2    0    0 -0.39679599747E-01 -0.71704357146E-02  0.36281398603E+01  0.36776384721E+01  0.60000000000E+00 0. -1.
</event>
<event>
 5   0  0.1014700E+04  0.9118800E+02  0.7818608E-02  0.1180000E+00
       11   -1    0    0    0    0  0.00000000000E+00  0.00000000000E+00  0.39999999673E+01  0.40000000000E+01  0.51109989000E-03 0. -1.
     -623   -1    0    0    0    0  0.00000000000E+00  0.00000000000E+00  0.12525980253E-10  0.17130000000E+03  0.17130000000E+03 0.  1.
       11    1    1    2    0    0  0.13808852819E-01 -0.36569061475E-02  0.60979318626E-02  0.15540378851E-01  0.51109989000E-03 0. -1.
     -623    1    1    2    0    0 -0.75884515400E-02  0.25173901868E-01  0.54951606751E-01  0.17130001083E+03  0.17130000000E+03 0.  1.
      622    1    1    2    0    0 -0.62204012786E-02 -0.21516995720E-01  0.39389504287E+01  0.39844487893E+01  0.60000000000E+00 0. -1.
</event>
<event>
 5   0  0.1014700E+04  0.9118800E+02  0.7818608E-02  0.1180000E+00
       11   -1    0    0    0    0  0.00000000000E+00  0.00000000000E+00  0.39999999673E+01  0.40000000000E+01  0.51109989000E-03 0.  1.
     -623   -1    0    0    0    0  0.00000000000E+00  0.00000000000E+00  0.12525980253E-10  0.17130000000E+03  0.17130000000E+03 0. -1.
       11    1    1    2    0    0 -0.70670120338E-02  0.30440659553E-01  0.33484999224E-01  0.45804833907E-01  0.51109989000E-03 0.  1.
     -623    1    1    2    0    0  0.40423040659E-01 -0.39147572066E-01  0.58277579725E-01  0.17130001916E+03  0.17130000000E+03 0. -1.
      622    1    1    2    0    0 -0.33356028625E-01  0.87069125129E-02  0.39082373884E+01  0.39541760101E+01  0.60000000000E+00 0.  1.
</event>
<event>
 5   0  0.1014700E+04  0.9118800E+02  0.7818608E-02  0.1180000E+00
       11   -1    0    0    0    0  0.00000000000E+00  0.00000000000E+00  0.39999999673E+01  0.40000000000E+01  0.51109989000E-03 0. -1.
     -623   -1    0    0    0    0  0.00000000000E+00  0.00000000000E+00  0.12525980253E-10  0.17130000000E+03  0.17130000000E+03 0. -1.
       11    1    1    2    0    0 -0.27218950745E-02  0.43131903937E-01  0.75001901020E+00  0.75126330054E+00  0.51109989000E-03 0. -1.
     -623    1    1    2    0    0  0.11005187849E-01 -0.48093276523E-01  0.57162643852E-01  0.17130001664E+03  0.17130000000E+03 0. -1.
      622    1    1    2    0    0 -0.82832927745E-02  0.49613725858E-02  0.31928183133E+01  0.32487200572E+01  0.60000000000E+00 0. -1.
</event>
<event>
 5   0  0.1014700E+04  0.9118800E+02  0.7818608E-02  0.1180000E+00
       11   -1    0    0    0    0  0.00000000000E+00  0.00000000000E+00  0.39999999673E+01  0.40000000000E+01  0.51109989000E-03 0.  1.
     -623   -1    0    0    0    0  0.00000000000E+00  0.00000000000E+00  0.12525980253E-10  0.17130000000E+03  0.17130000000E+03 0. -1.
       11    1    1    2    0    0  0.26829134610E-01  0.22314974570E-01  0.98993867684E-01  0.10496574497E+00  0.51109989000E-03 0.  1.
     -623    1    1    2    0    0 -0.20111658326E-01  0.46085105597E-01  0.53091525318E-01  0.17130001561E+03  0.17130000000E+03 0. -1.
      622    1    1    2    0    0 -0.67174762843E-02 -0.68400080167E-01  0.38479145744E+01  0.38950186478E+01  0.60000000000E+00 0.  1.
</event>
<event>
 5   0  0.1014700E+04  0.9118800E+02  0.7818608E-02  0.1180000E+00
       11   -1    0    0    0    0  0.00000000000E+00  0.00000000000E+00  0.39999999673E+01  0.40000000000E+01  0.51109989000E-03 0.  1.
     -623   -1    0    0    0    0  0.00000000000E+00  0.00000000000E+00  0.12525980253E-10  0.17130000000E+03  0.17130000000E+03 0. -1.
       11    1    1    2    0    0 -0.86620362857E-02  0.59680577651E-01  0.45709191679E+00  0.46105323319E+00  0.51109989000E-03 0.  1.
     -623    1    1    2    0    0  0.24942761432E-02  0.55295054759E-01  0.57114583715E-01  0.17130001846E+03  0.17130000000E+03 0. -1.
      622    1    1    2    0    0  0.61677601425E-02 -0.11497563241E+00  0.34857934669E+01  0.35389283026E+01  0.60000000000E+00 0.  0.
</event>
<event>
 5   0  0.1014700E+04  0.9118800E+02  0.7818608E-02  0.1180000E+00
       11   -1    0    0    0    0  0.00000000000E+00  0.00000000000E+00  0.39999999673E+01  0.40000000000E+01  0.51109989000E-03 0.  1.
     -623   -1    0    0    0    0  0.00000000000E+00  0.00000000000E+00  0.12525980253E-10  0.17130000000E+03  0.17130000000E+03 0.  1.
       11    1    1    2    0    0  0.44165611094E-01  0.67157760817E-01  0.37597649698E+00  0.38447282550E+00  0.51109989000E-03 0.  1.
     -623    1    1    2    0    0  0.33846102288E-02 -0.47823322298E-01  0.59015773123E-01  0.17130001688E+03  0.17130000000E+03 0.  1.
      622    1    1    2    0    0 -0.47550221323E-01 -0.19334438519E-01  0.35650076973E+01  0.36155102995E+01  0.60000000000E+00 0.  1.
</event>
<event>
 5   0  0.1014700E+04  0.9118800E+02  0.7818608E-02  0.1180000E+00
       11   -1    0    0    0    0  0.00000000000E+00  0.00000000000E+00  0.39999999673E+01  0.40000000000E+01  0.51109989000E-03 0.  1.
     -623   -1    0    0    0    0  0.00000000000E+00  0.00000000000E+00  0.12525980253E-10  0.17130000000E+03  0.17130000000E+03 0. -1.
       11    1    1    2    0    0 -0.13177811592E+00 -0.68251674056E-02  0.13173459184E+00  0.18645728373E+00  0.51109989000E-03 0.  1.
     -623    1    1    2    0    0  0.61556195034E-01 -0.17542102815E-02  0.10292567481E+00  0.17130004199E+03  0.17130000000E+03 0. -1.
      622    1    1    2    0    0  0.70221920885E-01  0.85793776871E-02  0.37653397007E+01  0.38135007258E+01  0.60000000000E+00 0.  1.
</event>
<event>
 5   0  0.1014700E+04  0.9118800E+02  0.7818608E-02  0.1180000E+00
       11   -1    0    0    0    0  0.00000000000E+00  0.00000000000E+00  0.39999999673E+01  0.40000000000E+01  0.51109989000E-03 0.  1.
     -623   -1    0    0    0    0  0.00000000000E+00  0.00000000000E+00  0.12525980253E-10  0.17130000000E+03  0.17130000000E+03 0. -1.
       11    1    1    2    0    0 -0.23153982725E-01  0.44099848599E-03  0.23570779092E+00  0.23684325052E+00  0.51109989000E-03 0.  1.
     -623    1    1    2    0    0 -0.54221752863E-01 -0.42660249910E-01  0.50342929481E-01  0.17130002129E+03  0.17130000000E+03 0. -1.
      622    1    1    2    0    0  0.77375735588E-01  0.42219251424E-01  0.37139492470E+01  0.37631354585E+01  0.60000000000E+00 0.  1.
</event>
<event>
 5   0  0.1014700E+04  0.9118800E+02  0.7818608E-02  0.1180000E+00
       11   -1    0    0    0    0  0.00000000000E+00  0.00000000000E+00  0.39999999673E+01  0.40000000000E+01  0.51109989000E-03 0.  1.
     -623   -1    0    0    0    0  0.00000000000E+00  0.00000000000E+00  0.12525980253E-10  0.17130000000E+03  0.17130000000E+03 0. -1.
       11    1    1    2    0    0  0.84098813591E-02 -0.78415450191E-03  0.98353365563E-02  0.12974439141E-01  0.51109989000E-03 0.  1.
     -623    1    1    2    0    0  0.16871311654E-01 -0.55117799082E-02  0.48638067107E-01  0.17130000782E+03  0.17130000000E+03 0. -1.
      622    1    1    2    0    0 -0.25281193013E-01  0.62959344101E-02  0.39415265637E+01  0.39870177363E+01  0.60000000000E+00 0.  1.
</event>
<event>
 5   0  0.1014700E+04  0.9118800E+02  0.7818608E-02  0.1180000E+00
       11   -1    0    0    0    0  0.00000000000E+00  0.00000000000E+00  0.39999999673E+01  0.40000000000E+01  0.51109989000E-03 0. -1.
     -623   -1    0    0    0    0  0.00000000000E+00  0.00000000000E+00  0.12525980253E-10  0.17130000000E+03  0.17130000000E+03 0. -1.
       11    1    1    2    0    0  0.46003459833E-01  0.18124667599E+00  0.58919286547E+00  0.61815464879E+00  0.51109989000E-03 0. -1.
     -623    1    1    2    0    0 -0.12742425758E-01 -0.15743071249E+00  0.82958529948E-01  0.17130009290E+03  0.17130000000E+03 0. -1.
      622    1    1    2    0    0 -0.33261034075E-01 -0.23815963503E-01  0.33278485719E+01  0.33817524472E+01  0.60000000000E+00 0. -1.
</event>
<event>
 5   0  0.1014700E+04  0.9118800E+02  0.7818608E-02  0.1180000E+00
       11   -1    0    0    0    0  0.00000000000E+00  0.00000000000E+00  0.39999999673E+01  0.40000000000E+01  0.51109989000E-03 0.  1.
     -623   -1    0    0    0    0  0.00000000000E+00  0.00000000000E+00  0.12525980253E-10  0.17130000000E+03  0.17130000000E+03 0.  1.
       11    1    1    2    0    0 -0.40941222938E-01  0.66654239235E-01  0.10151306511E-01  0.78881440090E-01  0.51109989000E-03 0.  1.
     -623    1    1    2    0    0 -0.14923964506E-01 -0.10137280452E+00  0.11553600122E+00  0.17130006961E+03  0.17130000000E+03 0.  1.
      622    1    1    2    0    0  0.55865187444E-01  0.34718565285E-01  0.38743126596E+01  0.39210489518E+01  0.60000000000E+00 0.  1.
</event>
<event>
 5   0  0.1014700E+04  0.9118800E+02  0.7818608E-02  0.1180000E+00
       11   -1    0    0    0    0  0.00000000000E+00  0.00000000000E+00  0.39999999673E+01  0.40000000000E+01  0.51109989000E-03 0.  1.
     -623   -1    0    0    0    0  0.00000000000E+00  0.00000000000E+00  0.12525980253E-10  0.17130000000E+03  0.17130000000E+03 0. -1.
       11    1    1    2    0    0 -0.11055005015E-01  0.15509517280E-01  0.17930677087E-01  0.26163498707E-01  0.51109989000E-03 0.  1.
     -623    1    1    2    0    0 -0.25763688553E-02 -0.65109415940E-01  0.54148203821E-01  0.17130002095E+03  0.17130000000E+03 0. -1.
      622    1    1    2    0    0  0.13631373870E-01  0.49599898660E-01  0.39279210865E+01  0.39738155500E+01  0.60000000000E+00 0.  1.
</event>
<event>
 5   0  0.1014700E+04  0.9118800E+02  0.7818608E-02  0.1180000E+00
       11   -1    0    0    0    0  0.00000000000E+00  0.00000000000E+00  0.39999999673E+01  0.40000000000E+01  0.51109989000E-03 0.  1.
     -623   -1    0    0    0    0  0.00000000000E+00  0.00000000000E+00  0.12525980253E-10  0.17130000000E+03  0.17130000000E+03 0. -1.
       11    1    1    2    0    0 -0.15169530229E+00  0.24915826157E-01  0.36219885452E+00  0.39347240636E+00  0.51109989000E-03 0.  1.
     -623    1    1    2    0    0 -0.83576597659E-02  0.73185050845E-01  0.86529695771E-01  0.17130003769E+03  0.17130000000E+03 0. -1.
      622    1    1    2    0    0  0.16005296205E+00 -0.98100877002E-01  0.35512714171E+01  0.36064899016E+01  0.60000000000E+00 0.  1.
</event>
<event>
 5   0  0.1014700E+04  0.9118800E+02  0.7818608E-02  0.1180000E+00
       11   -1    0    0    0    0  0.00000000000E+00  0.00000000000E+00  0.39999999673E+01  0.40000000000E+01  0.51109989000E-03 0.  1.
     -623   -1    0    0    0    0  0.00000000000E+00  0.00000000000E+00  0.12525980253E-10  0.17130000000E+03  0.17130000000E+03 0. -1.
       11    1    1    2    0    0  0.79679581460E-01 -0.16619330840E-01  0.88600439966E-01  0.12031349486E+00  0.51109989000E-03 0.  1.
     -623    1    1    2    0    0 -0.81746003192E-01  0.27035860736E-01  0.78444096197E-01  0.17130003960E+03  0.17130000000E+03 0. -1.
      622    1    1    2    0    0  0.20664217326E-02 -0.10416529896E-01  0.38329554312E+01  0.38796469056E+01  0.60000000000E+00 0.  1.
</event>
<event>
 5   0  0.1014700E+04  0.9118800E+02  0.7818608E-02  0.1180000E+00
       11   -1    0    0    0    0  0.00000000000E+00  0.00000000000E+00  0.39999999673E+01  0.40000000000E+01  0.51109989000E-03 0.  1.
     -623   -1    0    0    0    0  0.00000000000E+00  0.00000000000E+00  0.12525980253E-10  0.17130000000E+03  0.17130000000E+03 0. -1.
       11    1    1    2    0    0  0.45114013563E-01  0.49798063538E-01  0.47654391160E+00  0.48125822825E+00  0.51109989000E-03 0.  1.
     -623    1    1    2    0    0  0.14108497185E-01 -0.30652596958E-01  0.56817900512E-01  0.17130001275E+03  0.17130000000E+03 0. -1.
      622    1    1    2    0    0 -0.59222510748E-01 -0.19145466581E-01  0.34666381552E+01  0.35187290254E+01  0.60000000000E+00 0.  1.
</event>
<event>
 5   0  0.1014700E+04  0.9118800E+02  0.7818608E-02  0.1180000E+00
       11   -1    0    0    0    0  0.00000000000E+00  0.00000000000E+00  0.39999999673E+01  0.40000000000E+01  0.51109989000E-03 0. -1.
     -623   -1    0    0    0    0  0.00000000000E+00  0.00000000000E+00  0.12525980253E-10  0.17130000000E+03  0.17130000000E+03 0. -1.
       11    1    1    2    0    0  0.88782025594E-02 -0.67076637143E-02  0.11434387823E-01  0.15963135029E-01  0.51109989000E-03 0. -1.
     -623    1    1    2    0    0  0.21351481450E-01  0.33971889661E-01  0.50190719651E-01  0.17130001205E+03  0.17130000000E+03 0. -1.
      622    1    1    2    0    0 -0.30229684010E-01 -0.27264225947E-01  0.39383748599E+01  0.39840248128E+01  0.60000000000E+00 0. -1.
</event>
<event>
 5   0  0.1014700E+04  0.9118800E+02  0.7818608E-02  0.1180000E+00
       11   -1    0    0    0    0  0.00000000000E+00  0.00000000000E+00  0.39999999673E+01  0.40000000000E+01  0.51109989000E-03 0.  1.
     -623   -1    0    0    0    0  0.00000000000E+00  0.00000000000E+00  0.12525980253E-10  0.17130000000E+03  0.17130000000E+03 0.  1.
       11    1    1    2    0    0 -0.47001845709E-01  0.45852337981E-01  0.25327966678E+00  0.26165332260E+00  0.51109989000E-03 0.  1.
     -623    1    1    2    0    0  0.33988237301E-01 -0.22140787341E-01  0.56950985542E-01  0.17130001427E+03  0.17130000000E+03 0.  1.
      622    1    1    2    0    0  0.13013608408E-01 -0.23711550641E-01  0.36897693150E+01  0.37383324076E+01  0.60000000000E+00 0.  1.
</event>
<event>
 5   0  0.1014700E+04  0.9118800E+02  0.7818608E-02  0.1180000E+00
       11   -1    0    0    0    0  0.00000000000E+00  0.00000000000E+00  0.39999999673E+01  0.40000000000E+01  0.51109989000E-03 0. -1.
     -623   -1    0    0    0    0  0.00000000000E+00  0.00000000000E+00  0.12525980253E-10  0.17130000000E+03  0.17130000000E+03 0.  1.
       11    1    1    2    0    0  0.24521305671E-02  0.13721528961E-01 -0.15438169955E-02  0.14033456287E-01  0.51109989000E-03 0. -1.
     -623    1    1    2    0    0 -0.10392388820E-01  0.26375110149E-01  0.61219864848E-01  0.17130001329E+03  0.17130000000E+03 0.  1.
      622    1    1    2    0    0  0.79402582530E-02 -0.40096639110E-01  0.39403239195E+01  0.39859532585E+01  0.60000000000E+00 0. -1.
</event>
<event>
 5   0  0.1014700E+04  0.9118800E+02  0.7818608E-02  0.1180000E+00
       11   -1    0    0    0    0  0.00000000000E+00  0.00000000000E+00  0.39999999673E+01  0.40000000000E+01  0.51109989000E-03 0.  1.
     -623   -1    0    0    0    0  0.00000000000E+00  0.00000000000E+00  0.12525980253E-10  0.17130000000E+03  0.17130000000E+03 0. -1.
       11    1    1    2    0    0  0.21792580830E-02 -0.38494792983E-01 -0.16768349717E-01  0.42048032390E-01  0.51109989000E-03 0.  1.
     -623    1    1    2    0    0 -0.39546799396E-01 -0.19341138951E-01  0.10520316375E+00  0.17130003796E+03  0.17130000000E+03 0. -1.
      622    1    1    2    0    0  0.37367541313E-01  0.57835931934E-01  0.39115651533E+01  0.39579140058E+01  0.60000000000E+00 0.  1.
</event>
<event>
 5   0  0.1014700E+04  0.9118800E+02  0.7818608E-02  0.1180000E+00
       11   -1    0    0    0    0  0.00000000000E+00  0.00000000000E+00  0.39999999673E+01  0.40000000000E+01  0.51109989000E-03 0. -1.
     -623   -1    0    0    0    0  0.00000000000E+00  0.00000000000E+00  0.12525980253E-10  0.17130000000E+03  0.17130000000E+03 0. -1.
       11    1    1    2    0    0 -0.64438258545E-01 -0.74873272772E-01  0.11413357774E+01  0.11456028606E+01  0.51109989000E-03 0. -1.
     -623    1    1    2    0    0 -0.12903764660E-02  0.11639138676E+00  0.69177943414E-01  0.17130005351E+03  0.17130000000E+03 0. -1.
      622    1    1    2    0    0  0.65728635011E-01 -0.41518113986E-01  0.27894862465E+01  0.28543436245E+01  0.60000000000E+00 0. -1.
</event>
<event>
 5   0  0.1014700E+04  0.9118800E+02  0.7818608E-02  0.1180000E+00
       11   -1    0    0    0    0  0.00000000000E+00  0.00000000000E+00  0.39999999673E+01  0.40000000000E+01  0.51109989000E-03 0.  1.
     -623   -1    0    0    0    0  0.00000000000E+00  0.00000000000E+00  0.12525980253E-10  0.17130000000E+03  0.17130000000E+03 0. -1.
       11    1    1    2    0    0  0.24581262421E-01  0.12112340765E-01  0.37678942115E-01  0.46593037710E-01  0.51109989000E-03 0.  1.
     -623    1    1    2    0    0 -0.22784800712E-01 -0.19539896574E-01  0.54728634213E-01  0.17130001137E+03  0.17130000000E+03 0. -1.
      622    1    1    2    0    0 -0.17964617092E-02  0.74275558099E-02  0.39075923910E+01  0.39533955899E+01  0.60000000000E+00 0.  1.
</event>
<event>
 5   0  0.1014700E+04  0.9118800E+02  0.7818608E-02  0.1180000E+00
       11   -1    0    0    0    0  0.00000000000E+00  0.00000000000E+00  0.39999999673E+01  0.40000000000E+01  0.51109989000E-03 0.  1.
     -623   -1    0    0    0    0  0.00000000000E+00  0.00000000000E+00  0.12525980253E-10  0.17130000000E+03  0.17130000000E+03 0.  1.
       11    1    1    2    0    0 -0.17592162457E-01 -0.10091751791E-01  0.64804931610E+00  0.64836679816E+00  0.51109989000E-03 0.  1.
     -623    1    1    2    0    0 -0.13227967027E-01  0.95144043026E-01  0.55737669385E-01  0.17130003600E+03  0.17130000000E+03 0.  1.
      622    1    1    2    0    0  0.30820129484E-01 -0.85052291235E-01  0.32962129819E+01  0.33515972005E+01  0.60000000000E+00 0.  1.
</event>
<event>
 5   0  0.1014700E+04  0.9118800E+02  0.7818608E-02  0.1180000E+00
       11   -1    0    0    0    0  0.00000000000E+00  0.00000000000E+00  0.39999999673E+01  0.40000000000E+01  0.51109989000E-03 0. -1.
     -623   -1    0    0    0    0  0.00000000000E+00  0.00000000000E+00  0.12525980253E-10  0.17130000000E+03  0.17130000000E+03 0.  1.
       11    1    1    2    0    0  0.66717500279E-03  0.16180654722E-01  0.91465321207E-02  0.18605885699E-01  0.51109989000E-03 0. -1.
     -623    1    1    2    0    0  0.14506882571E-01 -0.35411678167E-01  0.55018756699E-01  0.17130001311E+03  0.17130000000E+03 0.  1.
      622    1    1    2    0    0 -0.15174057574E-01  0.19231023445E-01  0.39358346785E+01  0.39813810043E+01  0.60000000000E+00 0. -1.
</event>
<event>
 5   0  0.1014700E+04  0.9118800E+02  0.7818608E-02  0.1180000E+00
       11   -1    0    0    0    0  0.00000000000E+00  0.00000000000E+00  0.39999999673E+01  0.40000000000E+01  0.51109989000E-03 0. -1.
     -623   -1    0    0    0    0  0.00000000000E+00  0.00000000000E+00  0.12525980253E-10  0.17130000000E+03  0.17130000000E+03 0. -1.
       11    1    1    2    0    0  0.61650274828E-01  0.66948354961E-01  0.74554703740E+00  0.75108154338E+00  0.51109989000E-03 0. -1.
     -623    1    1    2    0    0  0.51336134641E-01 -0.19873060658E-01  0.63786152544E-01  0.17130002072E+03  0.17130000000E+03 0. -1.
      622    1    1    2    0    0 -0.11298640947E+00 -0.47075294303E-01  0.31906667774E+01  0.32488977356E+01  0.60000000000E+00 0. -1.
</event>
<event>
 5   0  0.1014700E+04  0.9118800E+02  0.7818608E-02  0.1180000E+00
       11   -1    0    0    0    0  0.00000000000E+00  0.00000000000E+00  0.39999999673E+01  0.40000000000E+01  0.51109989000E-03 0.  1.
     -623   -1    0    0    0    0  0.00000000000E+00  0.00000000000E+00  0.12525980253E-10  0.17130000000E+03  0.17130000000E+03 0.  1.
       11    1    1    2    0    0  0.65900323377E-01  0.17339773623E-01  0.17143843744E+00  0.18448555343E+00  0.51109989000E-03 0.  1.
     -623    1    1    2    0    0 -0.10416791282E+00 -0.50535532074E-01  0.60909354345E-01  0.17130004996E+03  0.17130000000E+03 0.  1.
      622    1    1    2    0    0  0.38267589447E-01  0.33195758451E-01  0.37676521756E+01  0.38154644911E+01  0.60000000000E+00 0.  1.
</event>
<event>
 5   0  0.1014700E+04  0.9118800E+02  0.7818608E-02  0.1180000E+00
       11   -1    0    0    0    0  0.00000000000E+00  0.00000000000E+00  0.39999999673E+01  0.40000000000E+01  0.51109989000E-03 0. -1.
     -623   -1    0    0    0    0  0.00000000000E+00  0.00000000000E+00  0.12525980253E-10  0.17130000000E+03  0.17130000000E+03 0. -1.
       11    1    1    2    0    0 -0.64806351167E-01 -0.41940420083E-01  0.23089313617E+00  0.24345587596E+00  0.51109989000E-03 0. -1.
     -623    1    1    2    0    0  0.53919350378E-01 -0.75444464860E-03  0.61070043080E-01  0.17130001937E+03  0.17130000000E+03 0. -1.
      622    1    1    2    0    0  0.10887000789E-01  0.42694864732E-01  0.37080367881E+01  0.37565247504E+01  0.60000000000E+00 0. -1.
</event>
<event>
 5   0  0.1014700E+04  0.9118800E+02  0.7818608E-02  0.1180000E+00
       11   -1    0    0    0    0  0.00000000000E+00  0.00000000000E+00  0.39999999673E+01  0.40000000000E+01  0.51109989000E-03 0. -1.
     -623   -1    0    0    0    0  0.00000000000E+00  0.00000000000E+00  0.12525980253E-10  0.17130000000E+03  0.17130000000E+03 0.  1.
       11    1    1    2    0    0 -0.37304460262E-01 -0.70791142289E-02  0.17727602236E+00  0.18129750671E+00  0.51109989000E-03 0. -1.
     -623    1    1    2    0    0 -0.70551187889E-01  0.70420383052E-01  0.53565112430E-01  0.17130003738E+03  0.17130000000E+03 0.  1.
      622    1    1    2    0    0  0.10785564815E+00 -0.63341268823E-01  0.37691588326E+01  0.38186651152E+01  0.60000000000E+00 0. -1.
</event>
<event>
 5   0  0.1014700E+04  0.9118800E+02  0.7818608E-02  0.1180000E+00
       11   -1    0    0    0    0  0.00000000000E+00  0.00000000000E+00  0.39999999673E+01  0.40000000000E+01  0.51109989000E-03 0.  1.
     -623   -1    0    0    0    0  0.00000000000E+00  0.00000000000E+00  0.12525980253E-10  0.17130000000E+03  0.17130000000E+03 0. -1.
       11    1    1    2    0    0 -0.81494162613E-01 -0.22250157449E-01  0.22133184784E+00  0.23690592255E+00  0.51109989000E-03 0.  1.
     -623    1    1    2    0    0 -0.15350537603E-01 -0.81658612742E-01  0.66464945874E-01  0.17130003305E+03  0.17130000000E+03 0. -1.
      622    1    1    2    0    0  0.96844700216E-01  0.10390877019E+00  0.37122031736E+01  0.37630610320E+01  0.60000000000E+00 0.  1.
</event>
<event>
 5   0  0.1014700E+04  0.9118800E+02  0.7818608E-02  0.1180000E+00
       11   -1    0    0    0    0  0.00000000000E+00  0.00000000000E+00  0.39999999673E+01  0.40000000000E+01  0.51109989000E-03 0. -1.
     -623   -1    0    0    0    0  0.00000000000E+00  0.00000000000E+00  0.12525980253E-10  0.17130000000E+03  0.17130000000E+03 0. -1.
       11    1    1    2    0    0  0.38477541889E-01  0.10719100060E-01  0.35189748874E+00  0.35415748494E+00  0.51109989000E-03 0. -1.
     -623    1    1    2    0    0  0.59338684358E-02  0.22219980643E-01  0.52404969016E-01  0.17130000956E+03  0.17130000000E+03 0. -1.
      622    1    1    2    0    0 -0.44411410325E-01 -0.32939080703E-01  0.35956975096E+01  0.36458329552E+01  0.60000000000E+00 0. -1.
</event>
<event>
 5   0  0.1014700E+04  0.9118800E+02  0.7818608E-02  0.1180000E+00
       11   -1    0    0    0    0  0.00000000000E+00  0.00000000000E+00  0.39999999673E+01  0.40000000000E+01  0.51109989000E-03 0. -1.
     -623   -1    0    0    0    0  0.00000000000E+00  0.00000000000E+00  0.12525980253E-10  0.17130000000E+03  0.17130000000E+03 0.  1.
       11    1    1    2    0    0  0.13549916530E-01  0.22897888198E-01  0.23200647951E-01  0.35305025285E-01  0.51109989000E-03 0. -1.
     -623    1    1    2    0    0  0.39262547281E-01 -0.53652024544E-03  0.58202253192E-01  0.17130001439E+03  0.17130000000E+03 0.  1.
      622    1    1    2    0    0 -0.52812463812E-01 -0.22361367952E-01  0.39185970662E+01  0.39646805867E+01  0.60000000000E+00 0. -1.
</event>
<event>
 5   0  0.1014700E+04  0.9118800E+02  0.7818608E-02  0.1180000E+00
       11   -1    0    0    0    0  0.00000000000E+00  0.00000000000E+00  0.39999999673E+01  0.40000000000E+01  0.51109989000E-03 0. -1.
     -623   -1    0    0    0    0  0.00000000000E+00  0.00000000000E+00  0.12525980253E-10  0.17130000000E+03  0.17130000000E+03 0. -1.
       11    1    1    2    0    0  0.40142709265E-01 -0.33426267965E-01  0.71217984313E-01  0.88323354838E-01  0.51109989000E-03 0. -1.
     -623    1    1    2    0    0 -0.14353787393E-01  0.39559656099E-01  0.63503343491E-01  0.17130001694E+03  0.17130000000E+03 0. -1.
      622    1    1    2    0    0 -0.25788921872E-01 -0.61333881337E-02  0.38652786396E+01  0.39116597051E+01  0.60000000000E+00 0. -1.
</event>
<event>
 5   0  0.1014700E+04  0.9118800E+02  0.7818608E-02  0.1180000E+00
       11   -1    0    0    0    0  0.00000000000E+00  0.00000000000E+00  0.39999999673E+01  0.40000000000E+01  0.51109989000E-03 0.  1.
     -623   -1    0    0    0    0  0.00000000000E+00  0.00000000000E+00  0.12525980253E-10  0.17130000000E+03  0.17130000000E+03 0.  1.
       11    1    1    2    0    0  0.11444318893E-01 -0.63103783606E-02  0.44034119688E-01  0.45935370114E-01  0.51109989000E-03 0.  1.
     -623    1    1    2    0    0  0.24414233417E-01  0.27077979027E-01  0.47919496748E-01  0.17130001058E+03  0.17130000000E+03 0.  1.
      622    1    1    2    0    0 -0.35858552309E-01 -0.20767600666E-01  0.39080463509E+01  0.39540540474E+01  0.60000000000E+00 0.  1.
</event>
<event>
 5   0  0.1014700E+04  0.9118800E+02  0.7818608E-02  0.1180000E+00
       11   -1    0    0    0    0  0.00000000000E+00  0.00000000000E+00  0.39999999673E+01  0.40000000000E+01  0.51109989000E-03 0.  1.
     -623   -1    0    0    0    0  0.00000000000E+00  0.00000000000E+00  0.12525980253E-10  0.17130000000E+03  0.17130000000E+03 0. -1.
       11    1    1    2    0    0  0.89552811089E-01  0.13951170840E-02  0.10583210495E+00  0.13864468251E+00  0.51109989000E-03 0.  1.
     -623    1    1    2    0    0 -0.36844606171E-01 -0.44244765755E-01  0.80346891987E-01  0.17130002852E+03  0.17130000000E+03 0. -1.
      622    1    1    2    0    0 -0.52708204918E-01  0.42849648671E-01  0.38138209704E+01  0.38613267981E+01  0.60000000000E+00 0.  1.
</event>
<event>
 5   0  0.1014700E+04  0.9118800E+02  0.7818608E-02  0.1180000E+00
       11   -1    0    0    0    0  0.00000000000E+00  0.00000000000E+00  0.39999999673E+01  0.40000000000E+01  0.51109989000E-03 0.  1.
     -623   -1    0    0    0    0  0.00000000000E+00  0.00000000000E+00  0.12525980253E-10  0.17130000000E+03  0.17130000000E+03 0. -1.
       11    1    1    2    0    0  0.80670038528E-01 -0.18557046646E-01  0.27680292906E+00  0.28891545797E+00  0.51109989000E-03 0.  1.
     -623    1    1    2    0    0 -0.17836390821E-01 -0.59029784723E-01  0.62320890200E-01  0.17130002244E+03  0.17130000000E+03 0. -1.
      622    1    1    2    0    0 -0.62833647707E-01  0.77586831369E-01  0.36608761481E+01  0.37110621061E+01  0.60000000000E+00 0.  1.
</event>
<event>
 5   0  0.1014700E+04  0.9118800E+02  0.7818608E-02  0.1180000E+00
       11   -1    0    0    0    0  0.00000000000E+00  0.00000000000E+00  0.39999999673E+01  0.40000000000E+01  0.51109989000E-03 0. -1.
     -623   -1    0    0    0    0  0.00000000000E+00  0.00000000000E+00  0.12525980253E-10  0.17130000000E+03  0.17130000000E+03 0.  1.
       11    1    1    2    0    0 -0.34978892890E-02 -0.50933666089E-01  0.52079015211E-01  0.72931190983E-01  0.51109989000E-03 0. -1.
     -623    1    1    2    0    0  0.32378994917E-01 -0.16815916079E-01  0.67674852313E-01  0.17130001725E+03  0.17130000000E+03 0.  1.
      622    1    1    2    0    0 -0.28881105628E-01  0.67749582168E-01  0.38802460998E+01  0.39270515555E+01  0.60000000000E+00 0. -1.
</event>
<event>
 5   0  0.1014700E+04  0.9118800E+02  0.7818608E-02  0.1180000E+00
       11   -1    0    0    0    0  0.00000000000E+00  0.00000000000E+00  0.39999999673E+01  0.40000000000E+01  0.51109989000E-03 0.  1.
     -623   -1    0    0    0    0  0.00000000000E+00  0.00000000000E+00  0.12525980253E-10  0.17130000000E+03  0.17130000000E+03 0. -1.
       11    1    1    2    0    0 -0.16122769889E-02  0.23041348385E-02 -0.85906642925E-03  0.29845757941E-02  0.51109989000E-03 0.  1.
     -623    1    1    2    0    0 -0.75310857273E-01 -0.12727120863E+00  0.51931945920E-01  0.17130007171E+03  0.17130000000E+03 0. -1.
      622    1    1    2    0    0  0.76923134262E-01  0.12496707379E+00  0.39489270879E+01  0.39969437178E+01  0.60000000000E+00 0.  1.
</event>
<event>
 5   0  0.1014700E+04  0.9118800E+02  0.7818608E-02  0.1180000E+00
       11   -1    0    0    0    0  0.00000000000E+00  0.00000000000E+00  0.39999999673E+01  0.40000000000E+01  0.51109989000E-03 0.  1.
     -623   -1    0    0    0    0  0.00000000000E+00  0.00000000000E+00  0.12525980253E-10  0.17130000000E+03  0.17130000000E+03 0. -1.
       11    1    1    2    0    0 -0.14510368544E-01  0.32771521209E-02  0.20864026334E-01  0.25629267181E-01  0.51109989000E-03 0.  1.
     -623    1    1    2    0    0  0.45000010305E-01 -0.15294146215E-01  0.50467312370E-01  0.17130001403E+03  0.17130000000E+03 0. -1.
      622    1    1    2    0    0 -0.30489641761E-01  0.12016994094E-01  0.39286686287E+01  0.39743567052E+01  0.60000000000E+00 0.  1.
</event>
<event>
 5   0  0.1014700E+04  0.9118800E+02  0.7818608E-02  0.1180000E+00
       11   -1    0    0    0    0  0.00000000000E+00  0.00000000000E+00  0.39999999673E+01  0.40000000000E+01  0.51109989000E-03 0. -1.
     -623   -1    0    0    0    0  0.00000000000E+00  0.00000000000E+00  0.12525980253E-10  0.17130000000E+03  0.17130000000E+03 0. -1.
       11    1    1    2    0    0  0.96745532544E-03 -0.27764428208E-01  0.18482090361E+00  0.18689790550E+00  0.51109989000E-03 0. -1.
     -623    1    1    2    0    0  0.69771203588E-01  0.58677784048E-02  0.50328648195E-01  0.17130002170E+03  0.17130000000E+03 0. -1.
      622    1    1    2    0    0 -0.70738658913E-01  0.21896649803E-01  0.37648504156E+01  0.38130803916E+01  0.60000000000E+00 0. -1.
</event>
<event>
 5   0  0.1014700E+04  0.9118800E+02  0.7818608E-02  0.1180000E+00
       11   -1    0    0    0    0  0.00000000000E+00  0.00000000000E+00  0.39999999673E+01  0.40000000000E+01  0.51109989000E-03 0.  1.
     -623   -1    0    0    0    0  0.00000000000E+00  0.00000000000E+00  0.12525980253E-10  0.17130000000E+03  0.17130000000E+03 0.  1.
       11    1    1    2    0    0  0.42439837615E-01  0.26554970186E-02  0.17016868083E+00  0.17540191743E+00  0.51109989000E-03 0.  1.
     -623    1    1    2    0    0 -0.39266897450E-01  0.10561908679E-01  0.52627695053E-01  0.17130001291E+03  0.17130000000E+03 0.  1.
      622    1    1    2    0    0 -0.31729401644E-02 -0.13217405698E-01  0.37772035915E+01  0.38245851721E+01  0.60000000000E+00 0.  1.
</event>
<event>
 5   0  0.1014700E+04  0.9118800E+02  0.7818608E-02  0.1180000E+00
       11   -1    0    0    0    0  0.00000000000E+00  0.00000000000E+00  0.39999999673E+01  0.40000000000E+01  0.51109989000E-03 0.  1.
     -623   -1    0    0    0    0  0.00000000000E+00  0.00000000000E+00  0.12525980253E-10  0.17130000000E+03  0.17130000000E+03 0. -1.
       11    1    1    2    0    0  0.19879370147E-01 -0.84444936255E-02 -0.39336666550E-02  0.21959822041E-01  0.51109989000E-03 0.  1.
     -623    1    1    2    0    0 -0.83616383932E-01 -0.40851008612E-01  0.72268745041E-01  0.17130004052E+03  0.17130000000E+03 0. -1.
      622    1    1    2    0    0  0.63737013786E-01  0.49295502238E-01  0.39316648890E+01  0.39779996547E+01  0.60000000000E+00 0.  1.
</event>
<event>
 5   0  0.1014700E+04  0.9118800E+02  0.7818608E-02  0.1180000E+00
       11   -1    0    0    0    0  0.00000000000E+00  0.00000000000E+00  0.39999999673E+01  0.40000000000E+01  0.51109989000E-03 0.  1.
     -623   -1    0    0    0    0  0.00000000000E+00  0.00000000000E+00  0.12525980253E-10  0.17130000000E+03  0.17130000000E+03 0.  1.
       11    1    1    2    0    0  0.91387176261E-01  0.45603557398E-01  0.12007921780E+00  0.15764066799E+00  0.51109989000E-03 0.  1.
     -623    1    1    2    0    0 -0.87072764012E-01  0.29315645738E-01  0.85485286628E-01  0.17130004597E+03  0.17130000000E+03 0.  1.
      622    1    1    2    0    0 -0.43144122489E-02 -0.74919203135E-01  0.37944354629E+01  0.38423133635E+01  0.60000000000E+00 0.  1.
</event>
<event>
 5   0  0.1014700E+04  0.9118800E+02  0.7818608E-02  0.1180000E+00
       11   -1    0    0    0    0  0.00000000000E+00  0.00000000000E+00  0.39999999673E+01  0.40000000000E+01  0.51109989000E-03 0.  1.
     -623   -1    0    0    0    0  0.00000000000E+00  0.00000000000E+00  0.12525980253E-10  0.17130000000E+03  0.17130000000E+03 0.  1.
       11    1    1    2    0    0  0.36499315623E-01 -0.77152107074E-01  0.91934291808E+00  0.92329643664E+00  0.51109989000E-03 0.  1.
     -623    1    1    2    0    0 -0.15826466360E-01 -0.44620250188E-01  0.65573061009E-01  0.17130001909E+03  0.17130000000E+03 0.  1.
      622    1    1    2    0    0 -0.20672849263E-01  0.12177235726E+00  0.30150839883E+01  0.30766844703E+01  0.60000000000E+00 0.  0.
</event>
<event>
 5   0  0.1014700E+04  0.9118800E+02  0.7818608E-02  0.1180000E+00
       11   -1    0    0    0    0  0.00000000000E+00  0.00000000000E+00  0.39999999673E+01  0.40000000000E+01  0.51109989000E-03 0.  1.
     -623   -1    0    0    0    0  0.00000000000E+00  0.00000000000E+00  0.12525980253E-10  0.17130000000E+03  0.17130000000E+03 0. -1.
       11    1    1    2    0    0  0.49120477433E-01  0.33121765681E-01 -0.16486707880E-01  0.61497523730E-01  0.51109989000E-03 0.  1.
     -623    1    1    2    0    0 -0.54829247713E-03 -0.16120435703E-01  0.12434176535E+00  0.17130004589E+03  0.17130000000E+03 0. -1.
      622    1    1    2    0    0 -0.48572184956E-01 -0.17001329978E-01  0.38921449099E+01  0.39384565888E+01  0.60000000000E+00 0.  1.
</event>
<event>
 5   0  0.1014700E+04  0.9118800E+02  0.7818608E-02  0.1180000E+00
       11   -1    0    0    0    0  0.00000000000E+00  0.00000000000E+00  0.39999999673E+01  0.40000000000E+01  0.51109989000E-03 0.  1.
     -623   -1    0    0    0    0  0.00000000000E+00  0.00000000000E+00  0.12525980253E-10  0.17130000000E+03  0.17130000000E+03 0. -1.
       11    1    1    2    0    0 -0.18677810841E-02 -0.28517563545E-01  0.87320402861E-01  0.91879562552E-01  0.51109989000E-03 0.  1.
     -623    1    1    2    0    0 -0.66491631990E-01  0.17504126099E-01  0.51534319579E-01  0.17130002155E+03  0.17130000000E+03 0. -1.
      622    1    1    2    0    0  0.68359413074E-01  0.11013437446E-01  0.38611452449E+01  0.39080988866E+01  0.60000000000E+00 0.  1.
</event>
<event>
 5   0  0.1014700E+04  0.9118800E+02  0.7818608E-02  0.1180000E+00
       11   -1    0    0    0    0  0.00000000000E+00  0.00000000000E+00  0.39999999673E+01  0.40000000000E+01  0.51109989000E-03 0.  1.
     -623   -1    0    0    0    0  0.00000000000E+00  0.00000000000E+00  0.12525980253E-10  0.17130000000E+03  0.17130000000E+03 0.  1.
       11    1    1    2    0    0  0.32538106660E-02  0.44600029204E-01  0.53453880725E-01  0.69694536920E-01  0.51109989000E-03 0.  1.
     -623    1    1    2    0    0 -0.36407798909E-03 -0.68829979175E-01  0.62410723143E-01  0.17130002520E+03  0.17130000000E+03 0.  1.
      622    1    1    2    0    0 -0.28897326769E-02  0.24229949971E-01  0.38841353635E+01  0.39302802652E+01  0.60000000000E+00 0.  1.
</event>
<event>
 5   0  0.1014700E+04  0.9118800E+02  0.7818608E-02  0.1180000E+00
       11   -1    0    0    0    0  0.00000000000E+00  0.00000000000E+00  0.39999999673E+01  0.40000000000E+01  0.51109989000E-03 0. -1.
     -623   -1    0    0    0    0  0.00000000000E+00  0.00000000000E+00  0.12525980253E-10  0.17130000000E+03  0.17130000000E+03 0. -1.
       11    1    1    2    0    0 -0.75906446412E-01 -0.41168694172E-01  0.16941367402E+00  0.19015231830E+00  0.51109989000E-03 0. -1.
     -623    1    1    2    0    0  0.19718480362E-01 -0.28472878560E-01  0.69363269203E-01  0.17130001754E+03  0.17130000000E+03 0. -1.
      622    1    1    2    0    0  0.56187966050E-01  0.69641572732E-01  0.37612230241E+01  0.38098301371E+01  0.60000000000E+00 0. -1.
</event>
<event>
 5   0  0.1014700E+04  0.9118800E+02  0.7818608E-02  0.1180000E+00
       11   -1    0    0    0    0  0.00000000000E+00  0.00000000000E+00  0.39999999673E+01  0.40000000000E+01  0.51109989000E-03 0.  1.
     -623   -1    0    0    0    0  0.00000000000E+00  0.00000000000E+00  0.12525980253E-10  0.17130000000E+03  0.17130000000E+03 0. -1.
       11    1    1    2    0    0 -0.55642176513E-01  0.24710443000E-01  0.29080736246E-01  0.67473018638E-01  0.51109989000E-03 0.  1.
     -623    1    1    2    0    0  0.22857470797E-01  0.74097384342E-02  0.84727797504E-01  0.17130002264E+03  0.17130000000E+03 0. -1.
      622    1    1    2    0    0  0.32784705716E-01 -0.32120181435E-01  0.38861914336E+01  0.39325043422E+01  0.60000000000E+00 0.  1.
</event>
<event>
 5   0  0.1014700E+04  0.9118800E+02  0.7818608E-02  0.1180000E+00
       11   -1    0    0    0    0  0.00000000000E+00  0.00000000000E+00  0.39999999673E+01  0.40000000000E+01  0.51109989000E-03 0.  1.
     -623   -1    0    0    0    0  0.00000000000E+00  0.00000000000E+00  0.12525980253E-10  0.17130000000E+03  0.17130000000E+03 0.  1.
       11    1    1    2    0    0 -0.77491542094E-01 -0.79857532286E-02  0.13312200440E+00  0.15424150099E+00  0.51109989000E-03 0.  1.
     -623    1    1    2    0    0  0.28327406612E-01  0.12389611988E-01  0.68550045520E-01  0.17130001651E+03  0.17130000000E+03 0.  1.
      622    1    1    2    0    0  0.49164135482E-01 -0.44038587589E-02  0.37983279174E+01  0.38457419927E+01  0.60000000000E+00 0.  1.
</event>
<event>
 5   0  0.1014700E+04  0.9118800E+02  0.7818608E-02  0.1180000E+00
       11   -1    0    0    0    0  0.00000000000E+00  0.00000000000E+00  0.39999999673E+01  0.40000000000E+01  0.51109989000E-03 0. -1.
     -623   -1    0    0    0    0  0.00000000000E+00  0.00000000000E+00  0.12525980253E-10  0.17130000000E+03  0.17130000000E+03 0. -1.
       11    1    1    2    0    0 -0.81246897183E-02  0.27804349713E-01 -0.13216689953E-01  0.31843909345E-01  0.51109989000E-03 0. -1.
     -623    1    1    2    0    0  0.78832209965E-02 -0.26403165499E-01  0.90710756880E-01  0.17130002623E+03  0.17130000000E+03 0. -1.
      622    1    1    2    0    0  0.24146872183E-03 -0.14011842138E-02  0.39225059004E+01  0.39681298568E+01  0.60000000000E+00 0. -1.
</event>
<event>
 5   0  0.1014700E+04  0.9118800E+02  0.7818608E-02  0.1180000E+00
       11   -1    0    0    0    0  0.00000000000E+00  0.00000000000E+00  0.39999999673E+01  0.40000000000E+01  0.51109989000E-03 0.  1.
     -623   -1    0    0    0    0  0.00000000000E+00  0.00000000000E+00  0.12525980253E-10  0.17130000000E+03  0.17130000000E+03 0. -1.
       11    1    1    2    0    0 -0.35282205873E-01  0.77265365453E-02  0.15529976896E-02  0.36155310028E-01  0.51109989000E-03 0.  1.
     -623    1    1    2    0    0  0.27421332752E-01 -0.50454632289E-01  0.80545641641E-01  0.17130002856E+03  0.17130000000E+03 0. -1.
      622    1    1    2    0    0  0.78608731211E-02  0.42728095744E-01  0.39179013280E+01  0.39638161284E+01  0.60000000000E+00 0.  1.
</event>
<event>
 5   0  0.1014700E+04  0.9118800E+02  0.7818608E-02  0.1180000E+00
       11   -1    0    0    0    0  0.00000000000E+00  0.00000000000E+00  0.39999999673E+01  0.40000000000E+01  0.51109989000E-03 0.  1.
     -623   -1    0    0    0    0  0.00000000000E+00  0.00000000000E+00  0.12525980253E-10  0.17130000000E+03  0.17130000000E+03 0. -1.
       11    1    1    2    0    0 -0.39270350322E-01 -0.86750492653E-01  0.12640488568E+00  0.15826011732E+00  0.51109989000E-03 0.  1.
     -623    1    1    2    0    0  0.79168430097E-01  0.19490880614E-03  0.80232896608E-01  0.17130003708E+03  0.17130000000E+03 0. -1.
      622    1    1    2    0    0 -0.39898079774E-01  0.86555583847E-01  0.37933621851E+01  0.38417027986E+01  0.60000000000E+00 0.  1.
</event>
<event>
 5   0  0.1014700E+04  0.9118800E+02  0.7818608E-02  0.1180000E+00
       11   -1    0    0    0    0  0.00000000000E+00  0.00000000000E+00  0.39999999673E+01  0.40000000000E+01  0.51109989000E-03 0.  1.
     -623   -1    0    0    0    0  0.00000000000E+00  0.00000000000E+00  0.12525980253E-10  0.17130000000E+03  0.17130000000E+03 0.  1.
       11    1    1    2    0    0  0.39225115570E-02  0.64666036881E-02  0.22395835163E-01  0.23643978417E-01  0.51109989000E-03 0.  1.
     -623    1    1    2    0    0 -0.86798136761E-02 -0.31928067037E-01  0.46871390896E-01  0.17130000961E+03  0.17130000000E+03 0.  1.
      622    1    1    2    0    0  0.47573021191E-02  0.25461463349E-01  0.39307327413E+01  0.39763464137E+01  0.60000000000E+00 0.  1.
</event>
<event>
 5   0  0.1014700E+04  0.9118800E+02  0.7818608E-02  0.1180000E+00
       11   -1    0    0    0    0  0.00000000000E+00  0.00000000000E+00  0.39999999673E+01  0.40000000000E+01  0.51109989000E-03 0. -1.
     -623   -1    0    0    0    0  0.00000000000E+00  0.00000000000E+00  0.12525980253E-10  0.17130000000E+03  0.17130000000E+03 0.  1.
       11    1    1    2    0    0  0.14158084797E-01 -0.78642905711E-02 -0.17591684269E-02  0.16298905728E-01  0.51109989000E-03 0. -1.
     -623    1    1    2    0    0 -0.27737204674E-01 -0.81865661841E-02  0.63571868704E-01  0.17130001424E+03  0.17130000000E+03 0.  1.
      622    1    1    2    0    0  0.13579119878E-01  0.16050856755E-01  0.39381872671E+01  0.39836868568E+01  0.60000000000E+00 0. -1.
</event>
<event>
 5   0  0.1014700E+04  0.9118800E+02  0.7818608E-02  0.1180000E+00
       11   -1    0    0    0    0  0.00000000000E+00  0.00000000000E+00  0.39999999673E+01  0.40000000000E+01  0.51109989000E-03 0. -1.
     -623   -1    0    0    0    0  0.00000000000E+00  0.00000000000E+00  0.12525980253E-10  0.17130000000E+03  0.17130000000E+03 0. -1.
       11    1    1    2    0    0 -0.19395055385E-02 -0.10900550371E-01 -0.55343496749E-02  0.12388459531E-01  0.51109989000E-03 0. -1.
     -623    1    1    2    0    0  0.26299425519E-02 -0.13170189691E-01  0.63406955840E-01  0.17130001226E+03  0.17130000000E+03 0. -1.
      622    1    1    2    0    0 -0.69043701333E-03  0.24070740062E-01  0.39421273612E+01  0.39875992789E+01  0.60000000000E+00 0. -1.
</event>
<event>
 5   0  0.1014700E+04  0.9118800E+02  0.7818608E-02  0.1180000E+00
       11   -1    0    0    0    0  0.00000000000E+00  0.00000000000E+00  0.39999999673E+01  0.40000000000E+01  0.51109989000E-03 0. -1.
     -623   -1    0    0    0    0  0.00000000000E+00  0.00000000000E+00  0.12525980253E-10  0.17130000000E+03  0.17130000000E+03 0. -1.
       11    1    1    2    0    0 -0.15793662658E-01 -0.79866799197E-01  0.26324413423E+00  0.27554651300E+00  0.51109989000E-03 0. -1.
     -623    1    1    2    0    0 -0.82494420971E-01  0.20748985896E-01  0.62772256890E-01  0.17130003262E+03  0.17130000000E+03 0. -1.
      622    1    1    2    0    0  0.98288083629E-01  0.59117813302E-01  0.36739835762E+01  0.37244208653E+01  0.60000000000E+00 0. -1.
</event>
<event>
 5   0  0.1014700E+04  0.9118800E+02  0.7818608E-02  0.1180000E+00
       11   -1    0    0    0    0  0.00000000000E+00  0.00000000000E+00  0.39999999673E+01  0.40000000000E+01  0.51109989000E-03 0. -1.
     -623   -1    0    0    0    0  0.00000000000E+00  0.00000000000E+00  0.12525980253E-10  0.17130000000E+03  0.17130000000E+03 0.  1.
       11    1    1    2    0    0  0.91279420828E-02  0.12231494237E-01 -0.35717690199E-02  0.15682714528E-01  0.51109989000E-03 0. -1.
     -623    1    1    2    0    0 -0.61275899883E-01 -0.10890822826E-01  0.65060027425E-01  0.17130002366E+03  0.17130000000E+03 0.  1.
      622    1    1    2    0    0  0.52147957801E-01 -0.13406714105E-02  0.39385117090E+01  0.39842936248E+01  0.60000000000E+00 0. -1.
</event>
<event>
 5   0  0.1014700E+04  0.9118800E+02  0.7818608E-02  0.1180000E+00
       11   -1    0    0    0    0  0.00000000000E+00  0.00000000000E+00  0.39999999673E+01  0.40000000000E+01  0.51109989000E-03 0.  1.
     -623   -1    0    0    0    0  0.00000000000E+00  0.00000000000E+00  0.12525980253E-10  0.17130000000E+03  0.17130000000E+03 0. -1.
       11    1    1    2    0    0  0.14779525273E-01  0.52854559267E-01  0.41345574452E+00  0.41708266891E+00  0.51109989000E-03 0.  1.
     -623    1    1    2    0    0  0.12242769426E-01  0.33618347494E-01  0.55397401936E-01  0.17130001269E+03  0.17130000000E+03 0. -1.
      622    1    1    2    0    0 -0.27022294699E-01 -0.86472906760E-01  0.35311468209E+01  0.35829046371E+01  0.60000000000E+00 0.  1.
</event>
<event>
 5   0  0.1014700E+04  0.9118800E+02  0.7818608E-02  0.1180000E+00
       11   -1    0    0    0    0  0.00000000000E+00  0.00000000000E+00  0.39999999673E+01  0.40000000000E+01  0.51109989000E-03 0. -1.
     -623   -1    0    0    0    0  0.00000000000E+00  0.00000000000E+00  0.12525980253E-10  0.17130000000E+03  0.17130000000E+03 0.  1.
       11    1    1    2    0    0  0.14191403251E-01 -0.65283545105E-02  0.19766636629E-01  0.25199136554E-01  0.51109989000E-03 0. -1.
     -623    1    1    2    0    0 -0.43638791010E-01 -0.11837459259E-01  0.51145737563E-01  0.17130001360E+03  0.17130000000E+03 0.  1.
      622    1    1    2    0    0  0.29447387758E-01  0.18365813769E-01  0.39290875932E+01  0.39747872605E+01  0.60000000000E+00 0. -1.
</event>
<event>
 5   0  0.1014700E+04  0.9118800E+02  0.7818608E-02  0.1180000E+00
       11   -1    0    0    0    0  0.00000000000E+00  0.00000000000E+00  0.39999999673E+01  0.40000000000E+01  0.51109989000E-03 0. -1.
     -623   -1    0    0    0    0  0.00000000000E+00  0.00000000000E+00  0.12525980253E-10  0.17130000000E+03  0.17130000000E+03 0. -1.
       11    1    1    2    0    0 -0.11543112505E+00  0.29979445729E-01  0.10532905057E+01  0.10600208783E+01  0.51109989000E-03 0. -1.
     -623    1    1    2    0    0  0.96802838636E-01 -0.46485898346E-01  0.68762503177E-01  0.17130004746E+03  0.17130000000E+03 0. -1.
      622    1    1    2    0    0  0.18628286411E-01  0.16506452618E-01  0.28779469585E+01  0.29399316611E+01  0.60000000000E+00 0. -1.
</event>
<event>
 5   0  0.1014700E+04  0.9118800E+02  0.7818608E-02  0.1180000E+00
       11   -1    0    0    0    0  0.00000000000E+00  0.00000000000E+00  0.39999999673E+01  0.40000000000E+01  0.51109989000E-03 0. -1.
     -623   -1    0    0    0    0  0.00000000000E+00  0.00000000000E+00  0.12525980253E-10  0.17130000000E+03  0.17130000000E+03 0.  1.
       11    1    1    2    0    0  0.39652659598E-01  0.59985377690E-02  0.93180684017E-01  0.10144563552E+00  0.51109989000E-03 0. -1.
     -623    1    1    2    0    0 -0.38271827482E-01  0.56228024367E-01  0.55238133935E-01  0.17130002241E+03  0.17130000000E+03 0.  1.
      622    1    1    2    0    0 -0.13808321154E-02 -0.62226562136E-01  0.38515811494E+01  0.38985319548E+01  0.60000000000E+00 0. -1.
</event>
<event>
 5   0  0.1014700E+04  0.9118800E+02  0.7818608E-02  0.1180000E+00
       11   -1    0    0    0    0  0.00000000000E+00  0.00000000000E+00  0.39999999673E+01  0.40000000000E+01  0.51109989000E-03 0.  1.
     -623   -1    0    0    0    0  0.00000000000E+00  0.00000000000E+00  0.12525980253E-10  0.17130000000E+03  0.17130000000E+03 0.  1.
       11    1    1    2    0    0  0.34635999797E-01 -0.17612480863E+00  0.21073739902E-01  0.18073174716E+00  0.51109989000E-03 0.  1.
     -623    1    1    2    0    0 -0.31341541792E-01  0.13014634709E+00  0.20754382573E+00  0.17130017803E+03  0.17130000000E+03 0.  1.
      622    1    1    2    0    0 -0.32944580047E-02  0.45978461534E-01  0.37713824017E+01  0.38190902179E+01  0.60000000000E+00 0.  1.
</event>
<event>
 5   0  0.1014700E+04  0.9118800E+02  0.7818608E-02  0.1180000E+00
       11   -1    0    0    0    0  0.00000000000E+00  0.00000000000E+00  0.39999999673E+01  0.40000000000E+01  0.51109989000E-03 0. -1.
     -623   -1    0    0    0    0  0.00000000000E+00  0.00000000000E+00  0.12525980253E-10  0.17130000000E+03  0.17130000000E+03 0. -1.
       11    1    1    2    0    0 -0.17397856590E-01 -0.67604439871E-01  0.83447474425E+00  0.83738963793E+00  0.51109989000E-03 0. -1.
     -623    1    1    2    0    0 -0.16711712694E+00  0.12172337106E+00  0.66451331208E-01  0.17130013765E+03  0.17130000000E+03 0. -1.
      622    1    1    2    0    0  0.18451498353E+00 -0.54118931190E-01  0.30990738919E+01  0.31624727074E+01  0.60000000000E+00 0. -1.
</event>
<event>
 5   0  0.1014700E+04  0.9118800E+02  0.7818608E-02  0.1180000E+00
       11   -1    0    0    0    0  0.00000000000E+00  0.00000000000E+00  0.39999999673E+01  0.40000000000E+01  0.51109989000E-03 0. -1.
     -623   -1    0    0    0    0  0.00000000000E+00  0.00000000000E+00  0.12525980253E-10  0.17130000000E+03  0.17130000000E+03 0. -1.
       11    1    1    2    0    0 -0.27405644182E-01 -0.55742565905E-01  0.26280096451E-01  0.67447814488E-01  0.51109989000E-03 0. -1.
     -623    1    1    2    0    0  0.17514648085E-01  0.53838593470E-01  0.87254012101E-01  0.17130003158E+03  0.17130000000E+03 0. -1.
      622    1    1    2    0    0  0.98909960973E-02  0.19039724347E-02  0.38864658588E+01  0.39325206075E+01  0.60000000000E+00 0. -1.
</event>
<event>
 5   0  0.1014700E+04  0.9118800E+02  0.7818608E-02  0.1180000E+00
       11   -1    0    0    0    0  0.00000000000E+00  0.00000000000E+00  0.39999999673E+01  0.40000000000E+01  0.51109989000E-03 0. -1.
     -623   -1    0    0    0    0  0.00000000000E+00  0.00000000000E+00  0.12525980253E-10  0.17130000000E+03  0.17130000000E+03 0. -1.
       11    1    1    2    0    0 -0.48001706382E-01  0.13622458442E+00  0.60864062857E-01  0.15673543501E+00  0.51109989000E-03 0. -1.
     -623    1    1    2    0    0  0.11865314092E+00 -0.12178984197E+00  0.14382698597E+00  0.17130014477E+03  0.17130000000E+03 0. -1.
      622    1    1    2    0    0 -0.70651434541E-01 -0.14434742447E-01  0.37953089185E+01  0.38431197970E+01  0.60000000000E+00 0. -1.
</event>
<event>
 5   0  0.1014700E+04  0.9118800E+02  0.7818608E-02  0.1180000E+00
       11   -1    0    0    0    0  0.00000000000E+00  0.00000000000E+00  0.39999999673E+01  0.40000000000E+01  0.51109989000E-03 0. -1.
     -623   -1    0    0    0    0  0.00000000000E+00  0.00000000000E+00  0.12525980253E-10  0.17130000000E+03  0.17130000000E+03 0. -1.
       11    1    1    2    0    0 -0.16888094865E+00  0.16961628188E+00  0.96941906144E+00  0.99853093883E+00  0.51109989000E-03 0. -1.
     -623    1    1    2    0    0 -0.33141451324E-01 -0.40809456790E-01  0.99507662840E-01  0.17130003697E+03  0.17130000000E+03 0. -1.
      622    1    1    2    0    0  0.20202239998E+00 -0.12880682509E+00  0.29310732431E+01  0.30014320923E+01  0.60000000000E+00 0. -1.
</event>
<event>
 5   0  0.1014700E+04  0.9118800E+02  0.7818608E-02  0.1180000E+00
       11   -1    0    0    0    0  0.00000000000E+00  0.00000000000E+00  0.39999999673E+01  0.40000000000E+01  0.51109989000E-03 0.  1.
     -623   -1    0    0    0    0  0.00000000000E+00  0.00000000000E+00  0.12525980253E-10  0.17130000000E+03  0.17130000000E+03 0. -1.
       11    1    1    2    0    0 -0.61072208131E-01  0.16939312280E+00  0.36100815839E+00  0.40342408989E+00  0.51109989000E-03 0.  1.
     -623    1    1    2    0    0 -0.29267265219E-01 -0.16071774371E+00  0.94083397138E-01  0.17130010373E+03  0.17130000000E+03 0. -1.
      622    1    1    2    0    0  0.90339473350E-01 -0.86753790850E-02  0.35449084118E+01  0.35964721785E+01  0.60000000000E+00 0.  1.
</event>
<event>
 5   0  0.1014700E+04  0.9118800E+02  0.7818608E-02  0.1180000E+00
       11   -1    0    0    0    0  0.00000000000E+00  0.00000000000E+00  0.39999999673E+01  0.40000000000E+01  0.51109989000E-03 0.  1.
     -623   -1    0    0    0    0  0.00000000000E+00  0.00000000000E+00  0.12525980253E-10  0.17130000000E+03  0.17130000000E+03 0. -1.
       11    1    1    2    0    0 -0.40053039257E-01  0.25882447669E-01  0.27511820478E-01  0.55057320496E-01  0.51109989000E-03 0.  1.
     -623    1    1    2    0    0 -0.83053244087E-01 -0.13411810751E-01  0.75442085554E-01  0.17130003727E+03  0.17130000000E+03 0. -1.
      622    1    1    2    0    0  0.12310628334E+00 -0.12470636918E-01  0.38970460613E+01  0.39449054080E+01  0.60000000000E+00 0.  1.
</event>
<event>
 5   0  0.1014700E+04  0.9118800E+02  0.7818608E-02  0.1180000E+00
       11   -1    0    0    0    0  0.00000000000E+00  0.00000000000E+00  0.39999999673E+01  0.40000000000E+01  0.51109989000E-03 0.  1.
     -623   -1    0    0    0    0  0.00000000000E+00  0.00000000000E+00  0.12525980253E-10  0.17130000000E+03  0.17130000000E+03 0. -1.
       11    1    1    2    0    0 -0.13094399756E-01 -0.41828710182E-02 -0.65716453941E-02  0.15244915913E-01  0.51109989000E-03 0.  1.
     -623    1    1    2    0    0  0.10923067024E-01  0.88685662579E-02  0.67265004381E-01  0.17130001378E+03  0.17130000000E+03 0. -1.
      622    1    1    2    0    0  0.21713327317E-02 -0.46856952396E-02  0.39393066084E+01  0.39847412997E+01  0.60000000000E+00 0.  1.
</event>
<event>
 5   0  0.1014700E+04  0.9118800E+02  0.7818608E-02  0.1180000E+00
       11   -1    0    0    0    0  0.00000000000E+00  0.00000000000E+00  0.39999999673E+01  0.40000000000E+01  0.51109989000E-03 0. -1.
     -623   -1    0    0    0    0  0.00000000000E+00  0.00000000000E+00  0.12525980253E-10  0.17130000000E+03  0.17130000000E+03 0.  1.
       11    1    1    2    0    0 -0.14712975010E+00  0.58494199445E-01  0.25518614463E+00  0.30031477547E+00  0.51109989000E-03 0. -1.
     -623    1    1    2    0    0  0.98011907978E-01  0.12240040552E-01  0.95177058379E-01  0.17130005492E+03  0.17130000000E+03 0.  1.
      622    1    1    2    0    0  0.49117842118E-01 -0.70734239997E-01  0.36496367643E+01  0.36996303068E+01  0.60000000000E+00 0. -1.
</event>
<event>
 5   0  0.1014700E+04  0.9118800E+02  0.7818608E-02  0.1180000E+00
       11   -1    0    0    0    0  0.00000000000E+00  0.00000000000E+00  0.39999999673E+01  0.40000000000E+01  0.51109989000E-03 0.  1.
     -623   -1    0    0    0    0  0.00000000000E+00  0.00000000000E+00  0.12525980253E-10  0.17130000000E+03  0.17130000000E+03 0. -1.
       11    1    1    2    0    0 -0.33267089654E-02  0.94382120853E-02 -0.65835128211E-02  0.11989608170E-01  0.51109989000E-03 0.  1.
     -623    1    1    2    0    0  0.86685486457E-01  0.27081391303E-01  0.65054084266E-01  0.17130003643E+03  0.17130000000E+03 0. -1.
      622    1    1    2    0    0 -0.83358777492E-01 -0.36519603388E-01  0.39415293959E+01  0.39879739651E+01  0.60000000000E+00 0.  1.
</event>
<event>
 5   0  0.1014700E+04  0.9118800E+02  0.7818608E-02  0.1180000E+00
       11   -1    0    0    0    0  0.00000000000E+00  0.00000000000E+00  0.39999999673E+01  0.40000000000E+01  0.51109989000E-03 0.  1.
     -623   -1    0    0    0    0  0.00000000000E+00  0.00000000000E+00  0.12525980253E-10  0.17130000000E+03  0.17130000000E+03 0.  1.
       11    1    1    2    0    0 -0.43315096077E-01  0.89495231317E-01  0.17985006417E+00  0.20550401646E+00  0.51109989000E-03 0.  1.
     -623    1    1    2    0    0  0.19684222482E-01 -0.59998165763E-01  0.73609775463E-01  0.17130002745E+03  0.17130000000E+03 0.  1.
      622    1    1    2    0    0  0.23630873595E-01 -0.29497065554E-01  0.37465401277E+01  0.37944685298E+01  0.60000000000E+00 0.  1.
</event>
<event>
 5   0  0.1014700E+04  0.9118800E+02  0.7818608E-02  0.1180000E+00
       11   -1    0    0    0    0  0.00000000000E+00  0.00000000000E+00  0.39999999673E+01  0.40000000000E+01  0.51109989000E-03 0. -1.
     -623   -1    0    0    0    0  0.00000000000E+00  0.00000000000E+00  0.12525980253E-10  0.17130000000E+03  0.17130000000E+03 0. -1.
       11    1    1    2    0    0  0.54605156055E-01  0.34266669779E-01  0.23902253251E+00  0.24756405231E+00  0.51109989000E-03 0. -1.
     -623    1    1    2    0    0 -0.58594021272E-01  0.44583880273E-01  0.57688279079E-01  0.17130002554E+03  0.17130000000E+03 0. -1.
      622    1    1    2    0    0  0.39888652165E-02 -0.78850550052E-01  0.37032891558E+01  0.37524104109E+01  0.60000000000E+00 0. -1.
</event>
<event>
 5   0  0.1014700E+04  0.9118800E+02  0.7818608E-02  0.1180000E+00
       11   -1    0    0    0    0  0.00000000000E+00  0.00000000000E+00  0.39999999673E+01  0.40000000000E+01  0.51109989000E-03 0. -1.
     -623   -1    0    0    0    0  0.00000000000E+00  0.00000000000E+00  0.12525980253E-10  0.17130000000E+03  0.17130000000E+03 0.  1.
       11    1    1    2    0    0  0.56515540471E-01 -0.41863236887E-01  0.50761703059E-01  0.86738391950E-01  0.51109989000E-03 0. -1.
     -623    1    1    2    0    0 -0.23526174524E-01 -0.41836138889E-01  0.83321645392E-01  0.17130002699E+03  0.17130000000E+03 0.  1.
      622    1    1    2    0    0 -0.32989365947E-01  0.83699375777E-01  0.38659166189E+01  0.39132346196E+01  0.60000000000E+00 0. -1.
</event>
<event>
 5   0  0.1014700E+04  0.9118800E+02  0.7818608E-02  0.1180000E+00
       11   -1    0    0    0    0  0.00000000000E+00  0.00000000000E+00  0.39999999673E+01  0.40000000000E+01  0.51109989000E-03 0.  1.
     -623   -1    0    0    0    0  0.00000000000E+00  0.00000000000E+00  0.12525980253E-10  0.17130000000E+03  0.17130000000E+03 0. -1.
       11    1    1    2    0    0 -0.11907357671E-01 -0.21819803775E-01  0.41216818271E+00  0.41291737801E+00  0.51109989000E-03 0.  1.
     -623    1    1    2    0    0  0.42221361226E-01 -0.18803966706E-01  0.51662687497E-01  0.17130001403E+03  0.17130000000E+03 0. -1.
      622    1    1    2    0    0 -0.30314003555E-01  0.40623770481E-01  0.35361690972E+01  0.35870685961E+01  0.60000000000E+00 0.  1.
</event>
<event>
 5   0  0.1014700E+04  0.9118800E+02  0.7818608E-02  0.1180000E+00
       11   -1    0    0    0    0  0.00000000000E+00  0.00000000000E+00  0.39999999673E+01  0.40000000000E+01  0.51109989000E-03 0.  1.
     -623   -1    0    0    0    0  0.00000000000E+00  0.00000000000E+00  0.12525980253E-10  0.17130000000E+03  0.17130000000E+03 0. -1.
       11    1    1    2    0    0  0.33989445646E-01  0.53880985062E-01  0.79742642113E-01  0.10206661138E+00  0.51109989000E-03 0.  1.
     -623    1    1    2    0    0 -0.76914612176E-01 -0.47251614626E-01  0.69062155908E-01  0.17130003771E+03  0.17130000000E+03 0. -1.
      622    1    1    2    0    0  0.42925166530E-01 -0.66293704356E-02  0.38511951693E+01  0.38978956824E+01  0.60000000000E+00 0.  1.
</event>
<event>
 5   0  0.1014700E+04  0.9118800E+02  0.7818608E-02  0.1180000E+00
       11   -1    0    0    0    0  0.00000000000E+00  0.00000000000E+00  0.39999999673E+01  0.40000000000E+01  0.51109989000E-03 0.  1.
     -623   -1    0    0    0    0  0.00000000000E+00  0.00000000000E+00  0.12525980253E-10  0.17130000000E+03  0.17130000000E+03 0. -1.
       11    1    1    2    0    0 -0.98983697275E-02 -0.22514562656E-01  0.19701575258E+00  0.19854558983E+00  0.51109989000E-03 0.  1.
     -623    1    1    2    0    0 -0.98876337245E-01  0.45153501593E-01  0.50865939203E-01  0.17130004204E+03  0.17130000000E+03 0. -1.
      622    1    1    2    0    0  0.10877470697E+00 -0.22638938938E-01  0.37521182756E+01  0.38014123707E+01  0.60000000000E+00 0.  1.
</event>
<event>
 5   0  0.1014700E+04  0.9118800E+02  0.7818608E-02  0.1180000E+00
       11   -1    0    0    0    0  0.00000000000E+00  0.00000000000E+00  0.39999999673E+01  0.40000000000E+01  0.51109989000E-03 0.  1.
     -623   -1    0    0    0    0  0.00000000000E+00  0.00000000000E+00  0.12525980253E-10  0.17130000000E+03  0.17130000000E+03 0.  1.
       11    1    1    2    0    0  0.51770769389E-01 -0.70686175984E-01  0.44468497542E-02  0.87731315565E-01  0.51109989000E-03 0.  1.
     -623    1    1    2    0    0 -0.71543671779E-01  0.91313357772E-01  0.12976239348E+00  0.17130008843E+03  0.17130000000E+03 0.  1.
      622    1    1    2    0    0  0.19772902390E-01 -0.20627181788E-01  0.38657907241E+01  0.39121802580E+01  0.60000000000E+00 0.  1.
</event>
<event>
 5   0  0.1014700E+04  0.9118800E+02  0.7818608E-02  0.1180000E+00
       11   -1    0    0    0    0  0.00000000000E+00  0.00000000000E+00  0.39999999673E+01  0.40000000000E+01  0.51109989000E-03 0. -1.
     -623   -1    0    0    0    0  0.00000000000E+00  0.00000000000E+00  0.12525980253E-10  0.17130000000E+03  0.17130000000E+03 0.  1.
       11    1    1    2    0    0  0.54281622858E-02  0.34428132127E-01  0.55566912642E-01  0.65595001572E-01  0.51109989000E-03 0. -1.
     -623    1    1    2    0    0 -0.22733858960E-01 -0.31033530380E-01  0.56101098305E-01  0.17130001351E+03  0.17130000000E+03 0.  1.
      622    1    1    2    0    0  0.17305696674E-01 -0.33946017471E-02  0.38883319564E+01  0.39343914922E+01  0.60000000000E+00 0. -1.
</event>
<event>
 5   0  0.1014700E+04  0.9118800E+02  0.7818608E-02  0.1180000E+00
       11   -1    0    0    0    0  0.00000000000E+00  0.00000000000E+00  0.39999999673E+01  0.40000000000E+01  0.51109989000E-03 0. -1.
     -623   -1    0    0    0    0  0.00000000000E+00  0.00000000000E+00  0.12525980253E-10  0.17130000000E+03  0.17130000000E+03 0.  1.
       11    1    1    2    0    0 -0.50907469249E-02 -0.15510230884E-01  0.44770668645E+00  0.44800448802E+00  0.51109989000E-03 0. -1.
     -623    1    1    2    0    0 -0.59754386511E-01  0.85368242119E-01  0.52678389049E-01  0.17130003979E+03  0.17130000000E+03 0.  1.
      622    1    1    2    0    0  0.64845133436E-01 -0.69858011235E-01  0.34996148919E+01  0.35519557182E+01  0.60000000000E+00 0. -1.
</event>
<event>
 5   0  0.1014700E+04  0.9118800E+02  0.7818608E-02  0.1180000E+00
       11   -1    0    0    0    0  0.00000000000E+00  0.00000000000E+00  0.39999999673E+01  0.40000000000E+01  0.51109989000E-03 0. -1.
     -623   -1    0    0    0    0  0.00000000000E+00  0.00000000000E+00  0.12525980253E-10  0.17130000000E+03  0.17130000000E+03 0.  1.
       11    1    1    2    0    0 -0.89665198696E-01 -0.78480059941E-02  0.45119937631E-02  0.90122463161E-01  0.51109989000E-03 0. -1.
     -623    1    1    2    0    0  0.10335641076E+00 -0.42973205603E-02  0.13204842265E+00  0.17130008213E+03  0.17130000000E+03 0.  1.
      622    1    1    2    0    0 -0.13691212062E-01  0.12145326554E-01  0.38634395509E+01  0.39097954067E+01  0.60000000000E+00 0. -1.
</event>
<event>
 5   0  0.1014700E+04  0.9118800E+02  0.7818608E-02  0.1180000E+00
       11   -1    0    0    0    0  0.00000000000E+00  0.00000000000E+00  0.39999999673E+01  0.40000000000E+01  0.51109989000E-03 0. -1.
     -623   -1    0    0    0    0  0.00000000000E+00  0.00000000000E+00  0.12525980253E-10  0.17130000000E+03  0.17130000000E+03 0. -1.
       11    1    1    2    0    0 -0.40384787311E-01  0.59577516034E-02  0.27601804839E-01  0.49280287173E-01  0.51109989000E-03 0. -1.
     -623    1    1    2    0    0 -0.70034243926E-02  0.67074329211E-01  0.68503465941E-01  0.17130002697E+03  0.17130000000E+03 0. -1.
      622    1    1    2    0    0  0.47388211704E-01 -0.73032080814E-01  0.39038946966E+01  0.39506927404E+01  0.60000000000E+00 0. -1.
</event>
<event>
 5   0  0.1014700E+04  0.9118800E+02  0.7818608E-02  0.1180000E+00
       11   -1    0    0    0    0  0.00000000000E+00  0.00000000000E+00  0.39999999673E+01  0.40000000000E+01  0.51109989000E-03 0. -1.
     -623   -1    0    0    0    0  0.00000000000E+00  0.00000000000E+00  0.12525980253E-10  0.17130000000E+03  0.17130000000E+03 0. -1.
       11    1    1    2    0    0 -0.91104019613E-01  0.44524322369E-01  0.17873890121E+00  0.20549991167E+00  0.51109989000E-03 0. -1.
     -623    1    1    2    0    0  0.10889841616E+00  0.11191594556E+00  0.77898115730E-01  0.17130008889E+03  0.17130000000E+03 0. -1.
      622    1    1    2    0    0 -0.17794396550E-01 -0.15644026793E+00  0.37433629504E+01  0.37944112029E+01  0.60000000000E+00 0. -1.
</event>
<event>
 5   0  0.1014700E+04  0.9118800E+02  0.7818608E-02  0.1180000E+00
       11   -1    0    0    0    0  0.00000000000E+00  0.00000000000E+00  0.39999999673E+01  0.40000000000E+01  0.51109989000E-03 0. -1.
     -623   -1    0    0    0    0  0.00000000000E+00  0.00000000000E+00  0.12525980253E-10  0.17130000000E+03  0.17130000000E+03 0. -1.
       11    1    1    2    0    0 -0.41607434894E-01 -0.40975451916E-01  0.24404181252E+00  0.25093193056E+00  0.51109989000E-03 0. -1.
     -623    1    1    2    0    0  0.10322260167E+00  0.53156576896E-01  0.55795534848E-01  0.17130004843E+03  0.17130000000E+03 0. -1.
      622    1    1    2    0    0 -0.61615166778E-01 -0.12181124980E-01  0.37001626200E+01  0.37490196349E+01  0.60000000000E+00 0. -1.
</event>
<event>
 5   0  0.1014700E+04  0.9118800E+02  0.7818608E-02  0.1180000E+00
       11   -1    0    0    0    0  0.00000000000E+00  0.00000000000E+00  0.39999999673E+01  0.40000000000E+01  0.51109989000E-03 0. -1.
     -623   -1    0    0    0    0  0.00000000000E+00  0.00000000000E+00  0.12525980253E-10  0.17130000000E+03  0.17130000000E+03 0. -1.
       11    1    1    2    0    0  0.10315490116E-01  0.44115296114E-01  0.13437860923E+00  0.14181128491E+00  0.51109989000E-03 0. -1.
     -623    1    1    2    0    0  0.33971829507E-02 -0.67877076230E-01  0.54493363766E-01  0.17130002215E+03  0.17130000000E+03 0. -1.
      622    1    1    2    0    0 -0.13712673066E-01  0.23761780115E-01  0.38111279944E+01  0.38581665657E+01  0.60000000000E+00 0. -1.
</event>
<event>
 5   0  0.1014700E+04  0.9118800E+02  0.7818608E-02  0.1180000E+00
       11   -1    0    0    0    0  0.00000000000E+00  0.00000000000E+00  0.39999999673E+01  0.40000000000E+01  0.51109989000E-03 0.  1.
     -623   -1    0    0    0    0  0.00000000000E+00  0.00000000000E+00  0.12525980253E-10  0.17130000000E+03  0.17130000000E+03 0. -1.
       11    1    1    2    0    0 -0.12078213863E+00  0.23809995404E-01  0.55666027742E+00  0.57011066169E+00  0.51109989000E-03 0.  1.
     -623    1    1    2    0    0  0.40757530635E-01  0.17419260248E-01  0.67557356359E-01  0.17130001906E+03  0.17130000000E+03 0. -1.
      622    1    1    2    0    0  0.80024607992E-01 -0.41229255652E-01  0.33757823336E+01  0.34298702823E+01  0.60000000000E+00 0.  1.
</event>
<event>
 5   0  0.1014700E+04  0.9118800E+02  0.7818608E-02  0.1180000E+00
       11   -1    0    0    0    0  0.00000000000E+00  0.00000000000E+00  0.39999999673E+01  0.40000000000E+01  0.51109989000E-03 0.  1.
     -623   -1    0    0    0    0  0.00000000000E+00  0.00000000000E+00  0.12525980253E-10  0.17130000000E+03  0.17130000000E+03 0. -1.
       11    1    1    2    0    0 -0.28128158528E-01 -0.39184293517E-01  0.23666902491E+00  0.24153486443E+00  0.51109989000E-03 0.  1.
     -623    1    1    2    0    0  0.40884904455E-01  0.14778749772E-01  0.53182928626E-01  0.17130001377E+03  0.17130000000E+03 0. -1.
      622    1    1    2    0    0 -0.12756745927E-01  0.24405543746E-01  0.37101480138E+01  0.37584513632E+01  0.60000000000E+00 0.  1.
</event>
<event>
 5   0  0.1014700E+04  0.9118800E+02  0.7818608E-02  0.1180000E+00
       11   -1    0    0    0    0  0.00000000000E+00  0.00000000000E+00  0.39999999673E+01  0.40000000000E+01  0.51109989000E-03 0. -1.
     -623   -1    0    0    0    0  0.00000000000E+00  0.00000000000E+00  0.12525980253E-10  0.17130000000E+03  0.17130000000E+03 0.  1.
       11    1    1    2    0    0  0.46137847198E-01  0.26855810905E-01  0.35250525695E-01  0.63974966262E-01  0.51109989000E-03 0. -1.
     -623    1    1    2    0    0  0.65659391393E-01 -0.40095628228E-01  0.76388723472E-01  0.17130003431E+03  0.17130000000E+03 0.  1.
      622    1    1    2    0    0 -0.11179723859E+00  0.13239817323E-01  0.38883607182E+01  0.39359907254E+01  0.60000000000E+00 0. -1.
</event>
<event>
 5   0  0.1014700E+04  0.9118800E+02  0.7818608E-02  0.1180000E+00
       11   -1    0    0    0    0  0.00000000000E+00  0.00000000000E+00  0.39999999673E+01  0.40000000000E+01  0.51109989000E-03 0.  1.
     -623   -1    0    0    0    0  0.00000000000E+00  0.00000000000E+00  0.12525980253E-10  0.17130000000E+03  0.17130000000E+03 0. -1.
       11    1    1    2    0    0 -0.12924668119E-01 -0.17738398080E-01 -0.68826724069E-02  0.23007177467E-01  0.51109989000E-03 0.  1.
     -623    1    1    2    0    0  0.16512667909E-01  0.59434078871E-01  0.75661549573E-01  0.17130002782E+03  0.17130000000E+03 0. -1.
      622    1    1    2    0    0 -0.35879997903E-02 -0.41695680790E-01  0.39312210902E+01  0.39769650066E+01  0.60000000000E+00 0.  1.
</event>
<event>
 5   0  0.1014700E+04  0.9118800E+02  0.7818608E-02  0.1180000E+00
       11   -1    0    0    0    0  0.00000000000E+00  0.00000000000E+00  0.39999999673E+01  0.40000000000E+01  0.51109989000E-03 0.  1.
     -623   -1    0    0    0    0  0.00000000000E+00  0.00000000000E+00  0.12525980253E-10  0.17130000000E+03  0.17130000000E+03 0.  1.
       11    1    1    2    0    0  0.26295002690E-01 -0.52915217675E-02  0.18691522481E-01  0.32696507533E-01  0.51109989000E-03 0.  1.
     -623    1    1    2    0    0  0.22409509919E-01  0.55564798055E-01  0.60284322769E-01  0.17130002109E+03  0.17130000000E+03 0.  1.
      622    1    1    2    0    0 -0.48704512609E-01 -0.50273276287E-01  0.39210241221E+01  0.39672824071E+01  0.60000000000E+00 0.  1.
</event>
<event>
 5   0  0.1014700E+04  0.9118800E+02  0.7818608E-02  0.1180000E+00
       11   -1    0    0    0    0  0.00000000000E+00  0.00000000000E+00  0.39999999673E+01  0.40000000000E+01  0.51109989000E-03 0. -1.
     -623   -1    0    0    0    0  0.00000000000E+00  0.00000000000E+00  0.12525980253E-10  0.17130000000E+03  0.17130000000E+03 0. -1.
       11    1    1    2    0    0  0.19782641704E-01  0.33561885628E-01  0.10318242832E+00  0.11029337158E+00  0.51109989000E-03 0. -1.
     -623    1    1    2    0    0 -0.70566246759E-01 -0.13405874697E-01  0.54077779503E-01  0.17130002360E+03  0.17130000000E+03 0. -1.
      622    1    1    2    0    0  0.50783605055E-01 -0.20156010931E-01  0.38427397595E+01  0.38896830332E+01  0.60000000000E+00 0. -1.
</event>
<event>
 5   0  0.1014700E+04  0.9118800E+02  0.7818608E-02  0.1180000E+00
       11   -1    0    0    0    0  0.00000000000E+00  0.00000000000E+00  0.39999999673E+01  0.40000000000E+01  0.51109989000E-03 0.  1.
     -623   -1    0    0    0    0  0.00000000000E+00  0.00000000000E+00  0.12525980253E-10  0.17130000000E+03  0.17130000000E+03 0.  1.
       11    1    1    2    0    0 -0.74584304429E-02 -0.15695365817E-01 -0.30771282732E-01  0.35342690289E-01  0.51109989000E-03 0.  1.
     -623    1    1    2    0    0  0.15628856612E-01 -0.23519732005E-01  0.11202220112E+00  0.17130003896E+03  0.17130000000E+03 0.  1.
      622    1    1    2    0    0 -0.81704261695E-02  0.39215097822E-01  0.39187490490E+01  0.39646183535E+01  0.60000000000E+00 0.  1.
</event>
<event>
 5   0  0.1014700E+04  0.9118800E+02  0.7818608E-02  0.1180000E+00
       11   -1    0    0    0    0  0.00000000000E+00  0.00000000000E+00  0.39999999673E+01  0.40000000000E+01  0.51109989000E-03 0. -1.
     -623   -1    0    0    0    0  0.00000000000E+00  0.00000000000E+00  0.12525980253E-10  0.17130000000E+03  0.17130000000E+03 0. -1.
       11    1    1    2    0    0  0.11376412882E-01  0.81205283768E-02  0.52675519750E-01  0.54500801417E-01  0.51109989000E-03 0. -1.
     -623    1    1    2    0    0  0.52947617271E-02 -0.22881375658E-01  0.47785652271E-01  0.17130000828E+03  0.17130000000E+03 0. -1.
      622    1    1    2    0    0 -0.16671174609E-01  0.14760847282E-01  0.38995387953E+01  0.39454909235E+01  0.60000000000E+00 0. -1.
</event>
<event>
 5   0  0.1014700E+04  0.9118800E+02  0.7818608E-02  0.1180000E+00
       11   -1    0    0    0    0  0.00000000000E+00  0.00000000000E+00  0.39999999673E+01  0.40000000000E+01  0.51109989000E-03 0.  1.
     -623   -1    0    0    0    0  0.00000000000E+00  0.00000000000E+00  0.12525980253E-10  0.17130000000E+03  0.17130000000E+03 0. -1.
       11    1    1    2    0    0  0.83977531205E-01 -0.13245242026E-01  0.22409293885E+00  0.23967805208E+00  0.51109989000E-03 0.  1.
     -623    1    1    2    0    0 -0.46777305222E-01 -0.20153607642E-01  0.64118427793E-01  0.17130001957E+03  0.17130000000E+03 0. -1.
      622    1    1    2    0    0 -0.37200225983E-01  0.33398849668E-01  0.37117886007E+01  0.37603023757E+01  0.60000000000E+00 0.  1.
</event>
<event>
 5   0  0.1014700E+04  0.9118800E+02  0.7818608E-02  0.1180000E+00
       11   -1    0    0    0    0  0.00000000000E+00  0.00000000000E+00  0.39999999673E+01  0.40000000000E+01  0.51109989000E-03 0. -1.
     -623   -1    0    0    0    0  0.00000000000E+00  0.00000000000E+00  0.12525980253E-10  0.17130000000E+03  0.17130000000E+03 0. -1.
       11    1    1    2    0    0 -0.26173498589E-01 -0.19394696913E-01  0.62210221786E-01  0.70225203551E-01  0.51109989000E-03 0. -1.
     -623    1    1    2    0    0 -0.98444667704E-02  0.70707191385E-01  0.54619091235E-01  0.17130002358E+03  0.17130000000E+03 0. -1.
      622    1    1    2    0    0  0.36017965359E-01 -0.51312494472E-01  0.38831706543E+01  0.39297512131E+01  0.60000000000E+00 0. -1.
</event>
<event>
 5   0  0.1014700E+04  0.9118800E+02  0.7818608E-02  0.1180000E+00
       11   -1    0    0    0    0  0.00000000000E+00  0.00000000000E+00  0.39999999673E+01  0.40000000000E+01  0.51109989000E-03 0.  1.
     -623   -1    0    0    0    0  0.00000000000E+00  0.00000000000E+00  0.12525980253E-10  0.17130000000E+03  0.17130000000E+03 0.  1.
       11    1    1    2    0    0 -0.44750453452E-01  0.21493729290E+00  0.39290773576E+00  0.45008598401E+00  0.51109989000E-03 0.  1.
     -623    1    1    2    0    0 -0.12882967051E+00 -0.19053726679E+00  0.11283923919E+00  0.17130019158E+03  0.17130000000E+03 0.  1.
      622    1    1    2    0    0  0.17358012396E+00 -0.24400026107E-01  0.34942529924E+01  0.35497224393E+01  0.60000000000E+00 0.  1.
</event>
<event>
 5   0  0.1014700E+04  0.9118800E+02  0.7818608E-02  0.1180000E+00
       11   -1    0    0    0    0  0.00000000000E+00  0.00000000000E+00  0.39999999673E+01  0.40000000000E+01  0.51109989000E-03 0.  1.
     -623   -1    0    0    0    0  0.00000000000E+00  0.00000000000E+00  0.12525980253E-10  0.17130000000E+03  0.17130000000E+03 0. -1.
       11    1    1    2    0    0 -0.22143456815E-01 -0.96786770427E-01  0.86694109966E+00  0.87260824149E+00  0.51109989000E-03 0.  1.
     -623    1    1    2    0    0  0.34392069887E-02  0.11852217095E+00  0.63950594211E-01  0.17130005297E+03  0.17130000000E+03 0. -1.
      622    1    1    2    0    0  0.18704249826E-01 -0.21735400523E-01  0.30691082735E+01  0.31273387842E+01  0.60000000000E+00 0.  1.
</event>
<event>
 5   0  0.1014700E+04  0.9118800E+02  0.7818608E-02  0.1180000E+00
       11   -1    0    0    0    0  0.00000000000E+00  0.00000000000E+00  0.39999999673E+01  0.40000000000E+01  0.51109989000E-03 0.  1.
     -623   -1    0    0    0    0  0.00000000000E+00  0.00000000000E+00  0.12525980253E-10  0.17130000000E+03  0.17130000000E+03 0.  1.
       11    1    1    2    0    0  0.16121470569E-02  0.25591140804E-02  0.23063984549E+00  0.23066024286E+00  0.51109989000E-03 0.  1.
     -623    1    1    2    0    0 -0.14913765059E-01  0.54574026589E-01  0.48559299497E-01  0.17130001623E+03  0.17130000000E+03 0.  1.
      622    1    1    2    0    0  0.13301618002E-01 -0.57133140669E-01  0.37208008224E+01  0.37693235320E+01  0.60000000000E+00 0.  0.
</event>
<event>
 5   0  0.1014700E+04  0.9118800E+02  0.7818608E-02  0.1180000E+00
       11   -1    0    0    0    0  0.00000000000E+00  0.00000000000E+00  0.39999999673E+01  0.40000000000E+01  0.51109989000E-03 0.  1.
     -623   -1    0    0    0    0  0.00000000000E+00  0.00000000000E+00  0.12525980253E-10  0.17130000000E+03  0.17130000000E+03 0. -1.
       11    1    1    2    0    0  0.26224554662E-01 -0.33610020477E-02  0.24170045101E-01  0.35825631959E-01  0.51109989000E-03 0.  1.
     -623    1    1    2    0    0 -0.45550121141E-01  0.40774233397E-02  0.57388929558E-01  0.17130001572E+03  0.17130000000E+03 0. -1.
      622    1    1    2    0    0  0.19325566479E-01 -0.71642129197E-03  0.39184409927E+01  0.39641586502E+01  0.60000000000E+00 0.  1.
</event>
<event>
 5   0  0.1014700E+04  0.9118800E+02  0.7818608E-02  0.1180000E+00
       11   -1    0    0    0    0  0.00000000000E+00  0.00000000000E+00  0.39999999673E+01  0.40000000000E+01  0.51109989000E-03 0. -1.
     -623   -1    0    0    0    0  0.00000000000E+00  0.00000000000E+00  0.12525980253E-10  0.17130000000E+03  0.17130000000E+03 0. -1.
       11    1    1    2    0    0 -0.42733323297E-01 -0.21062574922E-01  0.95738731587E-02  0.48597214454E-01  0.51109989000E-03 0. -1.
     -623    1    1    2    0    0  0.48454700232E-01 -0.82594326617E-02  0.84985129815E-01  0.17130002813E+03  0.17130000000E+03 0. -1.
      622    1    1    2    0    0 -0.57213769356E-02  0.29322007584E-01  0.39054409644E+01  0.39513746520E+01  0.60000000000E+00 0. -1.
</event>
<event>
 5   0  0.1014700E+04  0.9118800E+02  0.7818608E-02  0.1180000E+00
       11   -1    0    0    0    0  0.00000000000E+00  0.00000000000E+00  0.39999999673E+01  0.40000000000E+01  0.51109989000E-03 0. -1.
     -623   -1    0    0    0    0  0.00000000000E+00  0.00000000000E+00  0.12525980253E-10  0.17130000000E+03  0.17130000000E+03 0.  1.
       11    1    1    2    0    0 -0.35093284217E-01  0.43121901051E-02  0.58408096455E+00  0.58515038064E+00  0.51109989000E-03 0. -1.
     -623    1    1    2    0    0  0.46745633851E-01  0.49932706451E-01  0.54674176473E-01  0.17130002238E+03  0.17130000000E+03 0.  1.
      622    1    1    2    0    0 -0.11652349634E-01 -0.54244896556E-01  0.33612448263E+01  0.34148272385E+01  0.60000000000E+00 0. -1.
</event>
<event>
 5   0  0.1014700E+04  0.9118800E+02  0.7818608E-02  0.1180000E+00
       11   -1    0    0    0    0  0.00000000000E+00  0.00000000000E+00  0.39999999673E+01  0.40000000000E+01  0.51109989000E-03 0.  1.
     -623   -1    0    0    0    0  0.00000000000E+00  0.00000000000E+00  0.12525980253E-10  0.17130000000E+03  0.17130000000E+03 0. -1.
       11    1    1    2    0    0  0.48189947426E-01  0.94280858315E-03  0.11635015881E-01  0.49586235375E-01  0.51109989000E-03 0.  1.
     -623    1    1    2    0    0  0.34431577881E-02  0.27745996531E-01  0.84251971369E-01  0.17130002300E+03  0.17130000000E+03 0. -1.
      622    1    1    2    0    0 -0.51633105215E-01 -0.28688805114E-01  0.39041129801E+01  0.39503907638E+01  0.60000000000E+00 0.  1.
</event>
<event>
 5   0  0.1014700E+04  0.9118800E+02  0.7818608E-02  0.1180000E+00
       11   -1    0    0    0    0  0.00000000000E+00  0.00000000000E+00  0.39999999673E+01  0.40000000000E+01  0.51109989000E-03 0. -1.
     -623   -1    0    0    0    0  0.00000000000E+00  0.00000000000E+00  0.12525980253E-10  0.17130000000E+03  0.17130000000E+03 0. -1.
       11    1    1    2    0    0  0.11257819765E+00  0.22185290813E-01  0.26253858176E+00  0.28651842148E+00  0.51109989000E-03 0. -1.
     -623    1    1    2    0    0  0.33829512052E-02 -0.28944428756E-01  0.74632751627E-01  0.17130001874E+03  0.17130000000E+03 0. -1.
      622    1    1    2    0    0 -0.11596114886E+00  0.67591379429E-02  0.36628286340E+01  0.37134628416E+01  0.60000000000E+00 0. -1.
</event>
<event>
 5   0  0.1014700E+04  0.9118800E+02  0.7818608E-02  0.1180000E+00
       11   -1    0    0    0    0  0.00000000000E+00  0.00000000000E+00  0.39999999673E+01  0.40000000000E+01  0.51109989000E-03 0.  1.
     -623   -1    0    0    0    0  0.00000000000E+00  0.00000000000E+00  0.12525980253E-10  0.17130000000E+03  0.17130000000E+03 0.  1.
       11    1    1    2    0    0  0.10937397464E+00  0.11965669776E+00  0.98317530803E+00  0.99645087144E+00  0.51109989000E-03 0.  1.
     -623    1    1    2    0    0 -0.11789854062E+00 -0.28283567829E+00  0.78653020925E-01  0.17130029213E+03  0.17130000000E+03 0.  1.
      622    1    1    2    0    0  0.85245659762E-02  0.16317898053E+00  0.29381716384E+01  0.30032570028E+01  0.60000000000E+00 0.  1.
</event>
<event>
 5   0  0.1014700E+04  0.9118800E+02  0.7818608E-02  0.1180000E+00
       11   -1    0    0    0    0  0.00000000000E+00  0.00000000000E+00  0.39999999673E+01  0.40000000000E+01  0.51109989000E-03 0.  1.
     -623   -1    0    0    0    0  0.00000000000E+00  0.00000000000E+00  0.12525980253E-10  0.17130000000E+03  0.17130000000E+03 0. -1.
       11    1    1    2    0    0  0.23182255555E-01  0.11840265230E-01 -0.73878778457E-02  0.27063828502E-01  0.51109989000E-03 0.  1.
     -623    1    1    2    0    0 -0.26439396023E-01 -0.41279207539E-02  0.80049496140E-01  0.17130002079E+03  0.17130000000E+03 0. -1.
      622    1    1    2    0    0  0.32571404675E-02 -0.77123444761E-02  0.39273383491E+01  0.39729153776E+01  0.60000000000E+00 0.  1.
</event>
<event>
 5   0  0.1014700E+04  0.9118800E+02  0.7818608E-02  0.1180000E+00
       11   -1    0    0    0    0  0.00000000000E+00  0.00000000000E+00  0.39999999673E+01  0.40000000000E+01  0.51109989000E-03 0.  1.
     -623   -1    0    0    0    0  0.00000000000E+00  0.00000000000E+00  0.12525980253E-10  0.17130000000E+03  0.17130000000E+03 0. -1.
       11    1    1    2    0    0 -0.74158090354E-01  0.15531624721E-02  0.16763060236E+00  0.18330879616E+00  0.51109989000E-03 0.  1.
     -623    1    1    2    0    0  0.62974902223E-01  0.92722856380E-02  0.63190376537E-01  0.17130002348E+03  0.17130000000E+03 0. -1.
      622    1    1    2    0    0  0.11183188131E-01 -0.10825448110E-01  0.37691789885E+01  0.38166677221E+01  0.60000000000E+00 0.  1.
</event>
<event>
 5   0  0.1014700E+04  0.9118800E+02  0.7818608E-02  0.1180000E+00
       11   -1    0    0    0    0  0.00000000000E+00  0.00000000000E+00  0.39999999673E+01  0.40000000000E+01  0.51109989000E-03 0. -1.
     -623   -1    0    0    0    0  0.00000000000E+00  0.00000000000E+00  0.12525980253E-10  0.17130000000E+03  0.17130000000E+03 0.  1.
       11    1    1    2    0    0 -0.33184101333E-01 -0.53167398866E-01  0.18950403784E+00  0.19959959535E+00  0.51109989000E-03 0. -1.
     -623    1    1    2    0    0  0.69637862801E-01  0.13675346217E+00  0.58945829078E-01  0.17130007888E+03  0.17130000000E+03 0.  1.
      622    1    1    2    0    0 -0.36453761468E-01 -0.83586063305E-01  0.37515501004E+01  0.38003215210E+01  0.60000000000E+00 0. -1.
</event>
<event>
 5   0  0.1014700E+04  0.9118800E+02  0.7818608E-02  0.1180000E+00
       11   -1    0    0    0    0  0.00000000000E+00  0.00000000000E+00  0.39999999673E+01  0.40000000000E+01  0.51109989000E-03 0. -1.
     -623   -1    0    0    0    0  0.00000000000E+00  0.00000000000E+00  0.12525980253E-10  0.17130000000E+03  0.17130000000E+03 0. -1.
       11    1    1    2    0    0 -0.35757666714E-02 -0.15091353768E-01  0.61185127967E-01  0.63122231996E-01  0.51109989000E-03 0. -1.
     -623    1    1    2    0    0  0.10245643444E-01  0.49081697565E-01  0.48095652694E-01  0.17130001409E+03  0.17130000000E+03 0. -1.
      622    1    1    2    0    0 -0.66698767726E-02 -0.33990343797E-01  0.38907191867E+01  0.39368636782E+01  0.60000000000E+00 0. -1.
</event>
<event>
 5   0  0.1014700E+04  0.9118800E+02  0.7818608E-02  0.1180000E+00
       11   -1    0    0    0    0  0.00000000000E+00  0.00000000000E+00  0.39999999673E+01  0.40000000000E+01  0.51109989000E-03 0.  1.
     -623   -1    0    0    0    0  0.00000000000E+00  0.00000000000E+00  0.12525980253E-10  0.17130000000E+03  0.17130000000E+03 0.  1.
       11    1    1    2    0    0  0.29746415748E-01 -0.68504270153E-01  0.26336213764E+00  0.27374725760E+00  0.51109989000E-03 0.  1.
     -623    1    1    2    0    0 -0.29104255051E-01  0.10643719668E+00  0.59250311763E-01  0.17130004579E+03  0.17130000000E+03 0.  1.
      622    1    1    2    0    0 -0.64216069697E-03 -0.37932926523E-01  0.36773875180E+01  0.37262069557E+01  0.60000000000E+00 0.  1.
</event>
<event>
 5   0  0.1014700E+04  0.9118800E+02  0.7818608E-02  0.1180000E+00
       11   -1    0    0    0    0  0.00000000000E+00  0.00000000000E+00  0.39999999673E+01  0.40000000000E+01  0.51109989000E-03 0. -1.
     -623   -1    0    0    0    0  0.00000000000E+00  0.00000000000E+00  0.12525980253E-10  0.17130000000E+03  0.17130000000E+03 0. -1.
       11    1    1    2    0    0 -0.15156188557E+00 -0.12382694888E+00  0.53498455610E+00  0.56966029782E+00  0.51109989000E-03 0. -1.
     -623    1    1    2    0    0  0.58844993799E-01 -0.11706474083E+00  0.97513212260E-01  0.17130007786E+03  0.17130000000E+03 0. -1.
      622    1    1    2    0    0  0.92716891769E-01  0.24089168972E+00  0.33675021990E+01  0.34302618396E+01  0.60000000000E+00 0. -1.
</event>
<event>
 5   0  0.1014700E+04  0.9118800E+02  0.7818608E-02  0.1180000E+00
       11   -1    0    0    0    0  0.00000000000E+00  0.00000000000E+00  0.39999999673E+01  0.40000000000E+01  0.51109989000E-03 0.  1.
     -623   -1    0    0    0    0  0.00000000000E+00  0.00000000000E+00  0.12525980253E-10  0.17130000000E+03  0.17130000000E+03 0.  1.
       11    1    1    2    0    0  0.89798574484E-03  0.52508764598E-02  0.65810149477E-02  0.84822792609E-02  0.51109989000E-03 0.  1.
     -623    1    1    2    0    0  0.10299909485E-01 -0.21887854967E-01  0.47313817512E-01  0.17130000824E+03  0.17130000000E+03 0.  1.
      622    1    1    2    0    0 -0.11197895230E-01  0.16636978507E-01  0.39461051349E+01  0.39915094786E+01  0.60000000000E+00 0.  1.
</event>
<event>
 5   0  0.1014700E+04  0.9118800E+02  0.7818608E-02  0.1180000E+00
       11   -1    0    0    0    0  0.00000000000E+00  0.00000000000E+00  0.39999999673E+01  0.40000000000E+01  0.51109989000E-03 0.  1.
     -623   -1    0    0    0    0  0.00000000000E+00  0.00000000000E+00  0.12525980253E-10  0.17130000000E+03  0.17130000000E+03 0. -1.
       11    1    1    2    0    0 -0.82406875424E-01 -0.58933220164E-01  0.80929153866E+00  0.81560840685E+00  0.51109989000E-03 0.  1.
     -623    1    1    2    0    0  0.25677731867E-01 -0.61055553627E-01  0.66197058504E-01  0.17130002560E+03  0.17130000000E+03 0. -1.
      622    1    1    2    0    0  0.56729143557E-01  0.11998877379E+00  0.31245113702E+01  0.31843659972E+01  0.60000000000E+00 0.  1.
</event>
<event>
 5   0  0.1014700E+04  0.9118800E+02  0.7818608E-02  0.1180000E+00
       11   -1    0    0    0    0  0.00000000000E+00  0.00000000000E+00  0.39999999673E+01  0.40000000000E+01  0.51109989000E-03 0. -1.
     -623   -1    0    0    0    0  0.00000000000E+00  0.00000000000E+00  0.12525980253E-10  0.17130000000E+03  0.17130000000E+03 0.  1.
       11    1    1    2    0    0 -0.71804873936E-01  0.41392561606E-01  0.18062794720E+00  0.19873600733E+00  0.51109989000E-03 0. -1.
     -623    1    1    2    0    0  0.87167920208E-02 -0.57867860672E-01  0.66348876359E-01  0.17130002285E+03  0.17130000000E+03 0.  1.
      622    1    1    2    0    0  0.63088081915E-01  0.16475299066E-01  0.37530231438E+01  0.38012411472E+01  0.60000000000E+00 0. -1.
</event>
<event>
 5   0  0.1014700E+04  0.9118800E+02  0.7818608E-02  0.1180000E+00
       11   -1    0    0    0    0  0.00000000000E+00  0.00000000000E+00  0.39999999673E+01  0.40000000000E+01  0.51109989000E-03 0. -1.
     -623   -1    0    0    0    0  0.00000000000E+00  0.00000000000E+00  0.12525980253E-10  0.17130000000E+03  0.17130000000E+03 0. -1.
       11    1    1    2    0    0  0.16848724974E+00 -0.31585338907E+00  0.84165265601E+00  0.91462056138E+00  0.51109989000E-03 0. -1.
     -623    1    1    2    0    0 -0.97208300129E-01  0.40009214366E-01  0.14540593381E+00  0.17130009397E+03  0.17130000000E+03 0. -1.
      622    1    1    2    0    0 -0.71278949609E-01  0.27584417470E+00  0.30129413775E+01  0.30852854717E+01  0.60000000000E+00 0. -1.
</event>
<event>
 5   0  0.1014700E+04  0.9118800E+02  0.7818608E-02  0.1180000E+00
       11   -1    0    0    0    0  0.00000000000E+00  0.00000000000E+00  0.39999999673E+01  0.40000000000E+01  0.51109989000E-03 0.  1.
     -623   -1    0    0    0    0  0.00000000000E+00  0.00000000000E+00  0.12525980253E-10  0.17130000000E+03  0.17130000000E+03 0. -1.
       11    1    1    2    0    0  0.47150834573E-02  0.24571437129E-01 -0.22676954387E-01  0.33771186170E-01  0.51109989000E-03 0.  1.
     -623    1    1    2    0    0  0.12123345619E-01 -0.10167268684E+00  0.10295056399E+00  0.17130006154E+03  0.17130000000E+03 0. -1.
      622    1    1    2    0    0 -0.16838429076E-01  0.77101249714E-01  0.39197263578E+01  0.39661672752E+01  0.60000000000E+00 0.  1.
</event>
<event>
 5   0  0.1014700E+04  0.9118800E+02  0.7818608E-02  0.1180000E+00
       11   -1    0    0    0    0  0.00000000000E+00  0.00000000000E+00  0.39999999673E+01  0.40000000000E+01  0.51109989000E-03 0. -1.
     -623   -1    0    0    0    0  0.00000000000E+00  0.00000000000E+00  0.12525980253E-10  0.17130000000E+03  0.17130000000E+03 0.  1.
       11    1    1    2    0    0  0.66082647650E-01  0.25058998652E-01  0.10561326265E+00  0.12707986546E+00  0.51109989000E-03 0. -1.
     -623    1    1    2    0    0 -0.73509121068E-01 -0.13543312706E-02  0.68335801310E-01  0.17130002941E+03  0.17130000000E+03 0.  1.
      622    1    1    2    0    0  0.74264734178E-02 -0.23704667381E-01  0.38260509034E+01  0.38728907265E+01  0.60000000000E+00 0. -1.
</event>
<event>
 5   0  0.1014700E+04  0.9118800E+02  0.7818608E-02  0.1180000E+00
       11   -1    0    0    0    0  0.00000000000E+00  0.00000000000E+00  0.39999999673E+01  0.40000000000E+01  0.51109989000E-03 0. -1.
     -623   -1    0    0    0    0  0.00000000000E+00  0.00000000000E+00  0.12525980253E-10  0.17130000000E+03  0.17130000000E+03 0.  1.
       11    1    1    2    0    0 -0.23339549708E-01 -0.23284320285E-01  0.21630209322E-01  0.39433758762E-01  0.51109989000E-03 0. -1.
     -623    1    1    2    0    0  0.34592397227E-01  0.30268957121E-01  0.63555931429E-01  0.17130001796E+03  0.17130000000E+03 0.  1.
      622    1    1    2    0    0 -0.11252847519E-01 -0.69846368354E-02  0.39148138266E+01  0.39605482839E+01  0.60000000000E+00 0. -1.
</event>
<event>
 5   0  0.1014700E+04  0.9118800E+02  0.7818608E-02  0.1180000E+00
       11   -1    0    0    0    0  0.00000000000E+00  0.00000000000E+00  0.39999999673E+01  0.40000000000E+01  0.51109989000E-03 0. -1.
     -623   -1    0    0    0    0  0.00000000000E+00  0.00000000000E+00  0.12525980253E-10  0.17130000000E+03  0.17130000000E+03 0.  1.
       11    1    1    2    0    0 -0.13543145463E-01 -0.30602639458E-01  0.24070837282E-01  0.41226263006E-01  0.51109989000E-03 0. -1.
     -623    1    1    2    0    0  0.31925304514E-01  0.17642878035E-01  0.62968452879E-01  0.17130001546E+03  0.17130000000E+03 0.  1.
      622    1    1    2    0    0 -0.18382159051E-01  0.12959761423E-01  0.39129606772E+01  0.39587582801E+01  0.60000000000E+00 0. -1.
</event>
<event>
 5   0  0.1014700E+04  0.9118800E+02  0.7818608E-02  0.1180000E+00
       11   -1    0    0    0    0  0.00000000000E+00  0.00000000000E+00  0.39999999673E+01  0.40000000000E+01  0.51109989000E-03 0.  1.
     -623   -1    0    0    0    0  0.00000000000E+00  0.00000000000E+00  0.12525980253E-10  0.17130000000E+03  0.17130000000E+03 0.  1.
       11    1    1    2    0    0  0.42442635147E-03 -0.26941094512E-01  0.19996720977E-01  0.33557901963E-01  0.51109989000E-03 0.  1.
     -623    1    1    2    0    0 -0.48016383848E-01 -0.42443873049E-03  0.59606149924E-01  0.17130001710E+03  0.17130000000E+03 0.  1.
      622    1    1    2    0    0  0.47591957496E-01  0.27365533242E-01  0.39203970965E+01  0.39664249975E+01  0.60000000000E+00 0.  1.
</event>
<event>
 5   0  0.1014700E+04  0.9118800E+02  0.7818608E-02  0.1180000E+00
       11   -1    0    0    0    0  0.00000000000E+00  0.00000000000E+00  0.39999999673E+01  0.40000000000E+01  0.51109989000E-03 0.  1.
     -623   -1    0    0    0    0  0.00000000000E+00  0.00000000000E+00  0.12525980253E-10  0.17130000000E+03  0.17130000000E+03 0.  1.
       11    1    1    2    0    0  0.26595575742E-01  0.63098482566E-01  0.19917108349E+00  0.21061368633E+00  0.51109989000E-03 0.  1.
     -623    1    1    2    0    0  0.71419645098E-01  0.10698992633E+00  0.64459842087E-01  0.17130006043E+03  0.17130000000E+03 0.  1.
      622    1    1    2    0    0 -0.98015220840E-01 -0.17008840890E+00  0.37363690418E+01  0.37893258855E+01  0.60000000000E+00 0.  0.
</event>
<event>
 5   0  0.1014700E+04  0.9118800E+02  0.7818608E-02  0.1180000E+00
       11   -1    0    0    0    0  0.00000000000E+00  0.00000000000E+00  0.39999999673E+01  0.40000000000E+01  0.51109989000E-03 0. -1.
     -623   -1    0    0    0    0  0.00000000000E+00  0.00000000000E+00  0.12525980253E-10  0.17130000000E+03  0.17130000000E+03 0.  1.
       11    1    1    2    0    0  0.10146859782E-01  0.17520206830E-01  0.70737839393E-01  0.73580021431E-01  0.51109989000E-03 0. -1.
     -623    1    1    2    0    0 -0.54486694189E-01  0.36554117480E-01  0.49606381108E-01  0.17130001975E+03  0.17130000000E+03 0.  1.
      622    1    1    2    0    0  0.44339834407E-01 -0.54074324310E-01  0.38796557469E+01  0.39264002302E+01  0.60000000000E+00 0. -1.
</event>
<event>
 5   0  0.1014700E+04  0.9118800E+02  0.7818608E-02  0.1180000E+00
       11   -1    0    0    0    0  0.00000000000E+00  0.00000000000E+00  0.39999999673E+01  0.40000000000E+01  0.51109989000E-03 0.  1.
     -623   -1    0    0    0    0  0.00000000000E+00  0.00000000000E+00  0.12525980253E-10  0.17130000000E+03  0.17130000000E+03 0.  1.
       11    1    1    2    0    0 -0.19754678871E-01 -0.71632407794E-02  0.13970378383E+00  0.14127621099E+00  0.51109989000E-03 0.  1.
     -623    1    1    2    0    0 -0.77169192456E-02  0.82844335280E-01  0.49383420612E-01  0.17130002732E+03  0.17130000000E+03 0.  1.
      622    1    1    2    0    0  0.27471598117E-01 -0.75681094501E-01  0.38109127629E+01  0.38586964643E+01  0.60000000000E+00 0.  1.
</event>
<event>
 5   0  0.1014700E+04  0.9118800E+02  0.7818608E-02  0.1180000E+00
       11   -1    0    0    0    0  0.00000000000E+00  0.00000000000E+00  0.39999999673E+01  0.40000000000E+01  0.51109989000E-03 0. -1.
     -623   -1    0    0    0    0  0.00000000000E+00  0.00000000000E+00  0.12525980253E-10  0.17130000000E+03  0.17130000000E+03 0. -1.
       11    1    1    2    0    0  0.92589862108E-02 -0.86151392416E-02 -0.38455741581E-02  0.13228723035E-01  0.51109989000E-03 0. -1.
     -623    1    1    2    0    0 -0.16126844839E-01  0.19851103474E-02  0.62506046443E-01  0.17130001217E+03  0.17130000000E+03 0. -1.
      622    1    1    2    0    0  0.68678586280E-02  0.66300288943E-02  0.39413394951E+01  0.39867591024E+01  0.60000000000E+00 0. -1.
</event>
<event>
 5   0  0.1014700E+04  0.9118800E+02  0.7818608E-02  0.1180000E+00
       11   -1    0    0    0    0  0.00000000000E+00  0.00000000000E+00  0.39999999673E+01  0.40000000000E+01  0.51109989000E-03 0.  1.
     -623   -1    0    0    0    0  0.00000000000E+00  0.00000000000E+00  0.12525980253E-10  0.17130000000E+03  0.17130000000E+03 0.  1.
       11    1    1    2    0    0 -0.45173711964E-01 -0.49370024050E-01  0.31488715159E-01  0.73958528466E-01  0.51109989000E-03 0.  1.
     -623    1    1    2    0    0  0.50123524971E-01  0.45082507030E-01  0.88630512612E-01  0.17130003619E+03  0.17130000000E+03 0.  1.
      622    1    1    2    0    0 -0.49498130070E-02  0.42875170201E-02  0.38798807396E+01  0.39260052772E+01  0.60000000000E+00 0.  1.
</event>
<event>
 5   0  0.1014700E+04  0.9118800E+02  0.7818608E-02  0.1180000E+00
       11   -1    0    0    0    0  0.00000000000E+00  0.00000000000E+00  0.39999999673E+01  0.40000000000E+01  0.51109989000E-03 0. -1.
     -623   -1    0    0    0    0  0.00000000000E+00  0.00000000000E+00  0.12525980253E-10  0.17130000000E+03  0.17130000000E+03 0.  1.
       11    1    1    2    0    0 -0.23414913056E+00  0.66715005418E-01  0.61102371278E+00  0.65774383014E+00  0.51109989000E-03 0. -1.
     -623    1    1    2    0    0  0.25003489724E+00  0.37499001305E-01  0.10292855135E+00  0.17130021751E+03  0.17130000000E+03 0.  1.
      622    1    1    2    0    0 -0.15885766684E-01 -0.10421400672E+00  0.32860477032E+01  0.33420386630E+01  0.60000000000E+00 0. -1.
</event>
<event>
 5   0  0.1014700E+04  0.9118800E+02  0.7818608E-02  0.1180000E+00
       11   -1    0    0    0    0  0.00000000000E+00  0.00000000000E+00  0.39999999673E+01  0.40000000000E+01  0.51109989000E-03 0.  1.
     -623   -1    0    0    0    0  0.00000000000E+00  0.00000000000E+00  0.12525980253E-10  0.17130000000E+03  0.17130000000E+03 0.  1.
       11    1    1    2    0    0  0.65648535110E-01 -0.31059736307E-02  0.16067635931E+00  0.17359876411E+00  0.51109989000E-03 0.  1.
     -623    1    1    2    0    0 -0.94649831402E-01  0.32791361285E-01  0.60525100171E-01  0.17130003998E+03  0.17130000000E+03 0.  1.
      622    1    1    2    0    0  0.29001296292E-01 -0.29685387654E-01  0.37787985079E+01  0.38263612559E+01  0.60000000000E+00 0.  1.
</event>
<event>
 5   0  0.1014700E+04  0.9118800E+02  0.7818608E-02  0.1180000E+00
       11   -1    0    0    0    0  0.00000000000E+00  0.00000000000E+00  0.39999999673E+01  0.40000000000E+01  0.51109989000E-03 0.  1.
     -623   -1    0    0    0    0  0.00000000000E+00  0.00000000000E+00  0.12525980253E-10  0.17130000000E+03  0.17130000000E+03 0.  1.
       11    1    1    2    0    0 -0.36526693968E-01 -0.26777607058E+00  0.38867002001E+00  0.47339504542E+00  0.51109989000E-03 0.  1.
     -623    1    1    2    0    0  0.13211539399E+00  0.21675079595E+00  0.13807747562E+00  0.17130024373E+03  0.17130000000E+03 0.  1.
      622    1    1    2    0    0 -0.95588700023E-01  0.51025274638E-01  0.34732524717E+01  0.35263612280E+01  0.60000000000E+00 0.  1.
</event>
<event>
 5   0  0.1014700E+04  0.9118800E+02  0.7818608E-02  0.1180000E+00
       11   -1    0    0    0    0  0.00000000000E+00  0.00000000000E+00  0.39999999673E+01  0.40000000000E+01  0.51109989000E-03 0. -1.
     -623   -1    0    0    0    0  0.00000000000E+00  0.00000000000E+00  0.12525980253E-10  0.17130000000E+03  0.17130000000E+03 0. -1.
       11    1    1    2    0    0 -0.23442141935E-01  0.18732541455E-01  0.13256394391E+00  0.13591873519E+00  0.51109989000E-03 0. -1.
     -623    1    1    2    0    0  0.35464404746E-01  0.36528542647E-02  0.50317660581E-01  0.17130001110E+03  0.17130000000E+03 0. -1.
      622    1    1    2    0    0 -0.12022262811E-01 -0.22385395720E-01  0.38171183629E+01  0.38640701646E+01  0.60000000000E+00 0. -1.
</event>
<event>
 5   0  0.1014700E+04  0.9118800E+02  0.7818608E-02  0.1180000E+00
       11   -1    0    0    0    0  0.00000000000E+00  0.00000000000E+00  0.39999999673E+01  0.40000000000E+01  0.51109989000E-03 0.  1.
     -623   -1    0    0    0    0  0.00000000000E+00  0.00000000000E+00  0.12525980253E-10  0.17130000000E+03  0.17130000000E+03 0.  1.
       11    1    1    2    0    0 -0.87885730397E-01 -0.11422125808E-01  0.19689883087E+00  0.21592539774E+00  0.51109989000E-03 0.  1.
     -623    1    1    2    0    0 -0.11768378397E+00  0.69931234719E-01  0.73086861690E-01  0.17130007029E+03  0.17130000000E+03 0.  1.
      622    1    1    2    0    0  0.20556951436E+00 -0.58509108911E-01  0.37300142748E+01  0.37840043117E+01  0.60000000000E+00 0.  1.
</event>
<event>
 5   0  0.1014700E+04  0.9118800E+02  0.7818608E-02  0.1180000E+00
       11   -1    0    0    0    0  0.00000000000E+00  0.00000000000E+00  0.39999999673E+01  0.40000000000E+01  0.51109989000E-03 0.  1.
     -623   -1    0    0    0    0  0.00000000000E+00  0.00000000000E+00  0.12525980253E-10  0.17130000000E+03  0.17130000000E+03 0.  1.
       11    1    1    2    0    0  0.18710441060E-01  0.11553340662E-02  0.84751257622E-02  0.20579222076E-01  0.51109989000E-03 0.  1.
     -623    1    1    2    0    0  0.25256338699E-01 -0.58431381387E-01  0.58281515410E-01  0.17130002174E+03  0.17130000000E+03 0.  1.
      622    1    1    2    0    0 -0.43966779760E-01  0.57276047321E-01  0.39332433262E+01  0.39793990358E+01  0.60000000000E+00 0.  1.
</event>
<event>
 5   0  0.1014700E+04  0.9118800E+02  0.7818608E-02  0.1180000E+00
       11   -1    0    0    0    0  0.00000000000E+00  0.00000000000E+00  0.39999999673E+01  0.40000000000E+01  0.51109989000E-03 0.  1.
     -623   -1    0    0    0    0  0.00000000000E+00  0.00000000000E+00  0.12525980253E-10  0.17130000000E+03  0.17130000000E+03 0. -1.
       11    1    1    2    0    0  0.61220452308E-02  0.56740770894E-02 -0.33439258626E-01  0.34469114134E-01  0.51109989000E-03 0.  1.
     -623    1    1    2    0    0 -0.13506560131E+00 -0.72673981980E-01  0.11636611676E+00  0.17130010819E+03  0.17130000000E+03 0. -1.
      622    1    1    2    0    0  0.12894355608E+00  0.66999904891E-01  0.39170731092E+01  0.39654226976E+01  0.60000000000E+00 0.  1.
</event>
<event>
 5   0  0.1014700E+04  0.9118800E+02  0.7818608E-02  0.1180000E+00
       11   -1    0    0    0    0  0.00000000000E+00  0.00000000000E+00  0.39999999673E+01  0.40000000000E+01  0.51109989000E-03 0. -1.
     -623   -1    0    0    0    0  0.00000000000E+00  0.00000000000E+00  0.12525980253E-10  0.17130000000E+03  0.17130000000E+03 0. -1.
       11    1    1    2    0    0  0.17706302296E-01 -0.91041900495E-03  0.10276920449E-01  0.20499227321E-01  0.51109989000E-03 0. -1.
     -623    1    1    2    0    0 -0.51368377040E-01 -0.58413069150E-02  0.55881026416E-01  0.17130001692E+03  0.17130000000E+03 0. -1.
      622    1    1    2    0    0  0.33662074744E-01  0.67517259200E-02  0.39338420205E+01  0.39794838564E+01  0.60000000000E+00 0. -1.
</event>
<event>
 5   0  0.1014700E+04  0.9118800E+02  0.7818608E-02  0.1180000E+00
       11   -1    0    0    0    0  0.00000000000E+00  0.00000000000E+00  0.39999999673E+01  0.40000000000E+01  0.51109989000E-03 0.  1.
     -623   -1    0    0    0    0  0.00000000000E+00  0.00000000000E+00  0.12525980253E-10  0.17130000000E+03  0.17130000000E+03 0.  1.
       11    1    1    2    0    0 -0.18413198715E-01 -0.17348070124E-01 -0.33154981087E-01  0.41707498342E-01  0.51109989000E-03 0.  1.
     -623    1    1    2    0    0  0.22137315097E-01 -0.42165207043E-01  0.12110529114E+00  0.17130004943E+03  0.17130000000E+03 0.  1.
      622    1    1    2    0    0 -0.37241163819E-02  0.59513277167E-01  0.39120496573E+01  0.39582430724E+01  0.60000000000E+00 0.  1.
</event>
<event>
 5   0  0.1014700E+04  0.9118800E+02  0.7818608E-02  0.1180000E+00
       11   -1    0    0    0    0  0.00000000000E+00  0.00000000000E+00  0.39999999673E+01  0.40000000000E+01  0.51109989000E-03 0.  1.
     -623   -1    0    0    0    0  0.00000000000E+00  0.00000000000E+00  0.12525980253E-10  0.17130000000E+03  0.17130000000E+03 0.  1.
       11    1    1    2    0    0 -0.21653047695E-02 -0.32783273333E-01  0.49284056220E-01  0.59233529133E-01  0.51109989000E-03 0.  1.
     -623    1    1    2    0    0 -0.34253309783E-01  0.12271952094E-01  0.56131156646E-01  0.17130001306E+03  0.17130000000E+03 0.  1.
      622    1    1    2    0    0  0.36418614552E-01  0.20511321239E-01  0.38945847545E+01  0.39407534102E+01  0.60000000000E+00 0.  1.
</event>
<event>
 5   0  0.1014700E+04  0.9118800E+02  0.7818608E-02  0.1180000E+00
       11   -1    0    0    0    0  0.00000000000E+00  0.00000000000E+00  0.39999999673E+01  0.40000000000E+01  0.51109989000E-03 0. -1.
     -623   -1    0    0    0    0  0.00000000000E+00  0.00000000000E+00  0.12525980253E-10  0.17130000000E+03  0.17130000000E+03 0. -1.
       11    1    1    2    0    0 -0.28801177614E-01  0.78220178698E-02  0.60428970853E-01  0.67398913470E-01  0.51109989000E-03 0. -1.
     -623    1    1    2    0    0  0.16831748938E-01 -0.47260015947E-02  0.53039528344E-01  0.17130000910E+03  0.17130000000E+03 0. -1.
      622    1    1    2    0    0  0.11969428676E-01 -0.30960162750E-02  0.38865314682E+01  0.39325919831E+01  0.60000000000E+00 0. -1.
</event>
<event>
 5   0  0.1014700E+04  0.9118800E+02  0.7818608E-02  0.1180000E+00
       11   -1    0    0    0    0  0.00000000000E+00  0.00000000000E+00  0.39999999673E+01  0.40000000000E+01  0.51109989000E-03 0. -1.
     -623   -1    0    0    0    0  0.00000000000E+00  0.00000000000E+00  0.12525980253E-10  0.17130000000E+03  0.17130000000E+03 0.  1.
       11    1    1    2    0    0 -0.65625477630E-01 -0.31900525123E-01  0.75585882031E-01  0.10506109462E+00  0.51109989000E-03 0. -1.
     -623    1    1    2    0    0  0.63392476866E-01  0.28993686561E-01  0.75999629502E-01  0.17130003104E+03  0.17130000000E+03 0.  1.
      622    1    1    2    0    0  0.22330007642E-02  0.29068385624E-02  0.38484144558E+01  0.38949078628E+01  0.60000000000E+00 0. -1.
</event>
<event>
 5   0  0.1014700E+04  0.9118800E+02  0.7818608E-02  0.1180000E+00
       11   -1    0    0    0    0  0.00000000000E+00  0.00000000000E+00  0.39999999673E+01  0.40000000000E+01  0.51109989000E-03 0. -1.
     -623   -1    0    0    0    0  0.00000000000E+00  0.00000000000E+00  0.12525980253E-10  0.17130000000E+03  0.17130000000E+03 0. -1.
       11    1    1    2    0    0  0.13713827375E-01  0.14802551420E-02  0.12922886310E-01  0.18908263524E-01  0.51109989000E-03 0. -1.
     -623    1    1    2    0    0 -0.52374367014E-01  0.66650083173E-02  0.51673214320E-01  0.17130001593E+03  0.17130000000E+03 0. -1.
      622    1    1    2    0    0  0.38660539639E-01 -0.81452634593E-02  0.39354038667E+01  0.39810758065E+01  0.60000000000E+00 0. -1.
</event>
<event>
 5   0  0.1014700E+04  0.9118800E+02  0.7818608E-02  0.1180000E+00
       11   -1    0    0    0    0  0.00000000000E+00  0.00000000000E+00  0.39999999673E+01  0.40000000000E+01  0.51109989000E-03 0. -1.
     -623   -1    0    0    0    0  0.00000000000E+00  0.00000000000E+00  0.12525980253E-10  0.17130000000E+03  0.17130000000E+03 0. -1.
       11    1    1    2    0    0 -0.37596059100E-01  0.39229570795E-01  0.25767191132E+00  0.26333913114E+00  0.51109989000E-03 0. -1.
     -623    1    1    2    0    0 -0.12514695215E-01 -0.62284905516E-01  0.54586365541E-01  0.17130002048E+03  0.17130000000E+03 0. -1.
      622    1    1    2    0    0  0.50110754314E-01  0.23055334720E-01  0.36877416905E+01  0.37366403911E+01  0.60000000000E+00 0. -1.
</event>
<event>
 5   0  0.1014700E+04  0.9118800E+02  0.7818608E-02  0.1180000E+00
       11   -1    0    0    0    0  0.00000000000E+00  0.00000000000E+00  0.39999999673E+01  0.40000000000E+01  0.51109989000E-03 0.  1.
     -623   -1    0    0    0    0  0.00000000000E+00  0.00000000000E+00  0.12525980253E-10  0.17130000000E+03  0.17130000000E+03 0. -1.
       11    1    1    2    0    0 -0.25732003806E-01 -0.31688098120E-01  0.35671061047E+00  0.35903898455E+00  0.51109989000E-03 0.  1.
     -623    1    1    2    0    0 -0.61623938299E-01 -0.24600191869E-02  0.53350831002E-01  0.17130001941E+03  0.17130000000E+03 0. -1.
      622    1    1    2    0    0  0.87355942105E-01  0.34148117307E-01  0.35899385259E+01  0.36409416054E+01  0.60000000000E+00 0.  1.
</event>
<event>
 5   0  0.1014700E+04  0.9118800E+02  0.7818608E-02  0.1180000E+00
       11   -1    0    0    0    0  0.00000000000E+00  0.00000000000E+00  0.39999999673E+01  0.40000000000E+01  0.51109989000E-03 0. -1.
     -623   -1    0    0    0    0  0.00000000000E+00  0.00000000000E+00  0.12525980253E-10  0.17130000000E+03  0.17130000000E+03 0. -1.
       11    1    1    2    0    0  0.10473000736E-01 -0.18158147034E-01 -0.13314102166E-01  0.24838047180E-01  0.51109989000E-03 0. -1.
     -623    1    1    2    0    0  0.86249819973E-02 -0.25878552197E-01  0.84010372977E-01  0.17130002277E+03  0.17130000000E+03 0. -1.
      622    1    1    2    0    0 -0.19097982733E-01  0.44036699231E-01  0.39293036966E+01  0.39751391804E+01  0.60000000000E+00 0. -1.
</event>
<event>
 5   0  0.1014700E+04  0.9118800E+02  0.7818608E-02  0.1180000E+00
       11   -1    0    0    0    0  0.00000000000E+00  0.00000000000E+00  0.39999999673E+01  0.40000000000E+01  0.51109989000E-03 0.  1.
     -623   -1    0    0    0    0  0.00000000000E+00  0.00000000000E+00  0.12525980253E-10  0.17130000000E+03  0.17130000000E+03 0. -1.
       11    1    1    2    0    0  0.23424386135E-01  0.53482344969E-01  0.47338591725E+00  0.47697332312E+00  0.51109989000E-03 0.  1.
     -623    1    1    2    0    0 -0.34988746555E-01  0.37349769626E-02  0.55559389068E-01  0.17130001262E+03  0.17130000000E+03 0. -1.
      622    1    1    2    0    0  0.11564360420E-01 -0.57217321932E-01  0.34710546610E+01  0.35230140528E+01  0.60000000000E+00 0.  1.
</event>
<event>
 5   0  0.1014700E+04  0.9118800E+02  0.7818608E-02  0.1180000E+00
       11   -1    0    0    0    0  0.00000000000E+00  0.00000000000E+00  0.39999999673E+01  0.40000000000E+01  0.51109989000E-03 0.  1.
     -623   -1    0    0    0    0  0.00000000000E+00  0.00000000000E+00  0.12525980253E-10  0.17130000000E+03  0.17130000000E+03 0.  1.
       11    1    1    2    0    0 -0.29608398850E-02  0.19561634334E-01  0.90290963095E-02  0.21753388561E-01  0.51109989000E-03 0.  1.
     -623    1    1    2    0    0 -0.10785464967E-01 -0.85302880351E-02  0.58280675322E-01  0.17130001047E+03  0.17130000000E+03 0.  1.
      622    1    1    2    0    0  0.13746304852E-01 -0.11031346299E-01  0.39326901957E+01  0.39782361452E+01  0.60000000000E+00 0.  1.
</event>
<event>
 5   0  0.1014700E+04  0.9118800E+02  0.7818608E-02  0.1180000E+00
       11   -1    0    0    0    0  0.00000000000E+00  0.00000000000E+00  0.39999999673E+01  0.40000000000E+01  0.51109989000E-03 0.  1.
     -623   -1    0    0    0    0  0.00000000000E+00  0.00000000000E+00  0.12525980253E-10  0.17130000000E+03  0.17130000000E+03 0.  1.
       11    1    1    2    0    0  0.40834411966E+00 -0.21073025772E-01  0.91379562692E+00  0.10011052400E+01  0.51109989000E-03 0.  1.
     -623    1    1    2    0    0 -0.90664867344E-01 -0.98680059906E-01  0.16776266807E+00  0.17130013457E+03  0.17130000000E+03 0.  1.
      622    1    1    2    0    0 -0.31767925232E+00  0.11975308568E+00  0.29184416724E+01  0.29987601945E+01  0.60000000000E+00 0.  1.
</event>
<event>
 5   0  0.1014700E+04  0.9118800E+02  0.7818608E-02  0.1180000E+00
       11   -1    0    0    0    0  0.00000000000E+00  0.00000000000E+00  0.39999999673E+01  0.40000000000E+01  0.51109989000E-03 0.  1.
     -623   -1    0    0    0    0  0.00000000000E+00  0.00000000000E+00  0.12525980253E-10  0.17130000000E+03  0.17130000000E+03 0. -1.
       11    1    1    2    0    0  0.32725003121E-01  0.10696212459E-01  0.25824947513E-01  0.43040956395E-01  0.51109989000E-03 0.  1.
     -623    1    1    2    0    0  0.15415216279E-01  0.63570384789E-02  0.63316092240E-01  0.17130001251E+03  0.17130000000E+03 0. -1.
      622    1    1    2    0    0 -0.48140219400E-01 -0.17053250937E-01  0.39108589276E+01  0.39569465306E+01  0.60000000000E+00 0.  1.
</event>
<event>
 5   0  0.1014700E+04  0.9118800E+02  0.7818608E-02  0.1180000E+00
       11   -1    0    0    0    0  0.00000000000E+00  0.00000000000E+00  0.39999999673E+01  0.40000000000E+01  0.51109989000E-03 0.  1.
     -623   -1    0    0    0    0  0.00000000000E+00  0.00000000000E+00  0.12525980253E-10  0.17130000000E+03  0.17130000000E+03 0.  1.
       11    1    1    2    0    0  0.30427605525E-01  0.73570374411E-02  0.46410684470E-01  0.55983730071E-01  0.51109989000E-03 0.  1.
     -623    1    1    2    0    0 -0.31847653563E-01 -0.47570585092E-01  0.55705460748E-01  0.17130001862E+03  0.17130000000E+03 0.  1.
      622    1    1    2    0    0  0.14200480377E-02  0.40213547651E-01  0.38978838221E+01  0.39439976467E+01  0.60000000000E+00 0.  1.
</event>
<event>
 5   0  0.1014700E+04  0.9118800E+02  0.7818608E-02  0.1180000E+00
       11   -1    0    0    0    0  0.00000000000E+00  0.00000000000E+00  0.39999999673E+01  0.40000000000E+01  0.51109989000E-03 0. -1.
     -623   -1    0    0    0    0  0.00000000000E+00  0.00000000000E+00  0.12525980253E-10  0.17130000000E+03  0.17130000000E+03 0. -1.
       11    1    1    2    0    0  0.13209681135E+00 -0.10989813720E+00  0.31917379084E+00  0.36249046624E+00  0.51109989000E-03 0. -1.
     -623    1    1    2    0    0 -0.91683332852E-01  0.47976243304E-02  0.94961459125E-01  0.17130005092E+03  0.17130000000E+03 0. -1.
      622    1    1    2    0    0 -0.40413478502E-01  0.10510051287E+00  0.35858647174E+01  0.36374586099E+01  0.60000000000E+00 0.  0.
</event>
<event>
 5   0  0.1014700E+04  0.9118800E+02  0.7818608E-02  0.1180000E+00
       11   -1    0    0    0    0  0.00000000000E+00  0.00000000000E+00  0.39999999673E+01  0.40000000000E+01  0.51109989000E-03 0.  1.
     -623   -1    0    0    0    0  0.00000000000E+00  0.00000000000E+00  0.12525980253E-10  0.17130000000E+03  0.17130000000E+03 0.  1.
       11    1    1    2    0    0 -0.16203614724E-01  0.30856106343E-01  0.51781759486E-01  0.62420095041E-01  0.51109989000E-03 0.  1.
     -623    1    1    2    0    0  0.45724226496E-01  0.45775631196E-02  0.56909236354E-01  0.17130001562E+03  0.17130000000E+03 0.  1.
      622    1    1    2    0    0 -0.29520611772E-01 -0.35433669463E-01  0.38913089715E+01  0.39375642881E+01  0.60000000000E+00 0.  1.
</event>
<event>
 5   0  0.1014700E+04  0.9118800E+02  0.7818608E-02  0.1180000E+00
       11   -1    0    0    0    0  0.00000000000E+00  0.00000000000E+00  0.39999999673E+01  0.40000000000E+01  0.51109989000E-03 0. -1.
     -623   -1    0    0    0    0  0.00000000000E+00  0.00000000000E+00  0.12525980253E-10  0.17130000000E+03  0.17130000000E+03 0. -1.
       11    1    1    2    0    0 -0.58167974501E-01  0.34711379188E-01  0.16735818909E+00  0.18054754992E+00  0.51109989000E-03 0. -1.
     -623    1    1    2    0    0 -0.15384382970E-01 -0.83844989445E-01  0.61680878749E-01  0.17130003232E+03  0.17130000000E+03 0. -1.
      622    1    1    2    0    0  0.73552357471E-01  0.49133610258E-01  0.37709608995E+01  0.38194201349E+01  0.60000000000E+00 0. -1.
</event>
<event>
 5   0  0.1014700E+04  0.9118800E+02  0.7818608E-02  0.1180000E+00
       11   -1    0    0    0    0  0.00000000000E+00  0.00000000000E+00  0.39999999673E+01  0.40000000000E+01  0.51109989000E-03 0. -1.
     -623   -1    0    0    0    0  0.00000000000E+00  0.00000000000E+00  0.12525980253E-10  0.17130000000E+03  0.17130000000E+03 0.  1.
       11    1    1    2    0    0 -0.57370942908E-01  0.10446791919E-01  0.46101316199E-01  0.74338100123E-01  0.51109989000E-03 0. -1.
     -623    1    1    2    0    0  0.28302713403E-01 -0.77928833858E-02  0.74488587413E-01  0.17130001871E+03  0.17130000000E+03 0.  1.
      622    1    1    2    0    0  0.29068229505E-01 -0.26539085332E-02  0.38794100638E+01  0.39256431891E+01  0.60000000000E+00 0. -1.
</event>
<event>
 5   0  0.1014700E+04  0.9118800E+02  0.7818608E-02  0.1180000E+00
       11   -1    0    0    0    0  0.00000000000E+00  0.00000000000E+00  0.39999999673E+01  0.40000000000E+01  0.51109989000E-03 0. -1.
     -623   -1    0    0    0    0  0.00000000000E+00  0.00000000000E+00  0.12525980253E-10  0.17130000000E+03  0.17130000000E+03 0. -1.
       11    1    1    2    0    0 -0.38563703135E-01 -0.20911019713E-01  0.64618386235E+00  0.64767142528E+00  0.51109989000E-03 0. -1.
     -623    1    1    2    0    0 -0.14446294035E+00  0.80306955542E-01  0.61328896403E-01  0.17130009072E+03  0.17130000000E+03 0. -1.
      622    1    1    2    0    0  0.18302664348E+00 -0.59395935829E-01  0.32924872086E+01  0.33522378568E+01  0.60000000000E+00 0. -1.
</event>
<event>
 5   0  0.1014700E+04  0.9118800E+02  0.7818608E-02  0.1180000E+00
       11   -1    0    0    0    0  0.00000000000E+00  0.00000000000E+00  0.39999999673E+01  0.40000000000E+01  0.51109989000E-03 0.  1.
     -623   -1    0    0    0    0  0.00000000000E+00  0.00000000000E+00  0.12525980253E-10  0.17130000000E+03  0.17130000000E+03 0.  1.
       11    1    1    2    0    0  0.11134755710E-01 -0.11087807073E-02  0.57500924692E-02  0.12591146318E-01  0.51109989000E-03 0.  1.
     -623    1    1    2    0    0  0.21908334221E-01 -0.76706157967E-01  0.53175350770E-01  0.17130002683E+03  0.17130000000E+03 0.  1.
      622    1    1    2    0    0 -0.33043089931E-01  0.77814938674E-01  0.39410745241E+01  0.39873820252E+01  0.60000000000E+00 0.  1.
</event>
<event>
 5   0  0.1014700E+04  0.9118800E+02  0.7818608E-02  0.1180000E+00
       11   -1    0    0    0    0  0.00000000000E+00  0.00000000000E+00  0.39999999673E+01  0.40000000000E+01  0.51109989000E-03 0. -1.
     -623   -1    0    0    0    0  0.00000000000E+00  0.00000000000E+00  0.12525980253E-10  0.17130000000E+03  0.17130000000E+03 0.  1.
       11    1    1    2    0    0  0.11798337650E+00 -0.43200796373E-01  0.40221491679E+00  0.42138282648E+00  0.51109989000E-03 0. -1.
     -623    1    1    2    0    0 -0.85112755739E-01 -0.29885694235E-01  0.70774400778E-01  0.17130003837E+03  0.17130000000E+03 0.  1.
      622    1    1    2    0    0 -0.32870620759E-01  0.73086490608E-01  0.35270106498E+01  0.35785788012E+01  0.60000000000E+00 0. -1.
</event>
<event>
 5   0  0.1014700E+04  0.9118800E+02  0.7818608E-02  0.1180000E+00
       11   -1    0    0    0    0  0.00000000000E+00  0.00000000000E+00  0.39999999673E+01  0.40000000000E+01  0.51109989000E-03 0. -1.
     -623   -1    0    0    0    0  0.00000000000E+00  0.00000000000E+00  0.12525980253E-10  0.17130000000E+03  0.17130000000E+03 0. -1.
       11    1    1    2    0    0 -0.10783225982E+00 -0.23433074701E+00  0.84473644779E+00  0.88324324096E+00  0.51109989000E-03 0. -1.
     -623    1    1    2    0    0  0.14015179448E+00 -0.88254074166E-01  0.11415665267E+00  0.17130011811E+03  0.17130000000E+03 0. -1.
      622    1    1    2    0    0 -0.32319534658E-01  0.32258482118E+00  0.30411068669E+01  0.31166386533E+01  0.60000000000E+00 0. -1.
</event>
<event>
 5   0  0.1014700E+04  0.9118800E+02  0.7818608E-02  0.1180000E+00
       11   -1    0    0    0    0  0.00000000000E+00  0.00000000000E+00  0.39999999673E+01  0.40000000000E+01  0.51109989000E-03 0. -1.
     -623   -1    0    0    0    0  0.00000000000E+00  0.00000000000E+00  0.12525980253E-10  0.17130000000E+03  0.17130000000E+03 0. -1.
       11    1    1    2    0    0  0.24092498027E-02 -0.25816342327E-01  0.13007685375E-01  0.29012912906E-01  0.51109989000E-03 0. -1.
     -623    1    1    2    0    0 -0.22567586789E-01  0.55222404556E-01  0.61779371034E-01  0.17130002153E+03  0.17130000000E+03 0. -1.
      622    1    1    2    0    0  0.20158336986E-01 -0.29406062229E-01  0.39252129110E+01  0.39709655591E+01  0.60000000000E+00 0. -1.
</event>
<event>
 5   0  0.1014700E+04  0.9118800E+02  0.7818608E-02  0.1180000E+00
       11   -1    0    0    0    0  0.00000000000E+00  0.00000000000E+00  0.39999999673E+01  0.40000000000E+01  0.51109989000E-03 0. -1.
     -623   -1    0    0    0    0  0.00000000000E+00  0.00000000000E+00  0.12525980253E-10  0.17130000000E+03  0.17130000000E+03 0.  1.
       11    1    1    2    0    0  0.29204213675E-02 -0.24447960677E-01  0.17012665804E+00  0.17189989134E+00  0.51109989000E-03 0. -1.
     -623    1    1    2    0    0 -0.84172654777E-01  0.63189383161E-02  0.50031421983E-01  0.17130002810E+03  0.17130000000E+03 0.  1.
      622    1    1    2    0    0  0.81252233409E-01  0.18129022361E-01  0.37798418873E+01  0.38280720056E+01  0.60000000000E+00 0. -1.
</event>
<event>
 5   0  0.1014700E+04  0.9118800E+02  0.7818608E-02  0.1180000E+00
       11   -1    0    0    0    0  0.00000000000E+00  0.00000000000E+00  0.39999999673E+01  0.40000000000E+01  0.51109989000E-03 0.  1.
     -623   -1    0    0    0    0  0.00000000000E+00  0.00000000000E+00  0.12525980253E-10  0.17130000000E+03  0.17130000000E+03 0. -1.
       11    1    1    2    0    0 -0.30985757273E-01 -0.32083387071E-01  0.53638540394E-01  0.69762562441E-01  0.51109989000E-03 0.  1.
     -623    1    1    2    0    0  0.26526097235E-01 -0.13995422268E-01  0.62482829676E-01  0.17130001402E+03  0.17130000000E+03 0. -1.
      622    1    1    2    0    0  0.44596600378E-02  0.46078809339E-01  0.38838785973E+01  0.39302234165E+01  0.60000000000E+00 0.  1.
</event>
<event>
 5   0  0.1014700E+04  0.9118800E+02  0.7818608E-02  0.1180000E+00
       11   -1    0    0    0    0  0.00000000000E+00  0.00000000000E+00  0.39999999673E+01  0.40000000000E+01  0.51109989000E-03 0. -1.
     -623   -1    0    0    0    0  0.00000000000E+00  0.00000000000E+00  0.12525980253E-10  0.17130000000E+03  0.17130000000E+03 0. -1.
       11    1    1    2    0    0 -0.34352966820E-01  0.49504090983E-01  0.11124248096E+00  0.12651455310E+00  0.51109989000E-03 0. -1.
     -623    1    1    2    0    0  0.11394121586E-01 -0.55739190047E-01  0.62118872859E-01  0.17130002071E+03  0.17130000000E+03 0. -1.
      622    1    1    2    0    0  0.22958845234E-01  0.62350990638E-02  0.38266386135E+01  0.38734647363E+01  0.60000000000E+00 0. -1.
</event>
<event>
 5   0  0.1014700E+04  0.9118800E+02  0.7818608E-02  0.1180000E+00
       11   -1    0    0    0    0  0.00000000000E+00  0.00000000000E+00  0.39999999673E+01  0.40000000000E+01  0.51109989000E-03 0.  1.
     -623   -1    0    0    0    0  0.00000000000E+00  0.00000000000E+00  0.12525980253E-10  0.17130000000E+03  0.17130000000E+03 0. -1.
       11    1    1    2    0    0 -0.28986037472E-02  0.10433660661E+00  0.42155921322E+00  0.43428902917E+00  0.51109989000E-03 0.  1.
     -623    1    1    2    0    0  0.10441878910E+00 -0.17681956619E-01  0.66154491721E-01  0.17130004551E+03  0.17130000000E+03 0. -1.
      622    1    1    2    0    0 -0.10152018536E+00 -0.86654649992E-01  0.35122862624E+01  0.35656654590E+01  0.60000000000E+00 0. -1.
</event>
<event>
 5   0  0.1014700E+04  0.9118800E+02  0.7818608E-02  0.1180000E+00
       11   -1    0    0    0    0  0.00000000000E+00  0.00000000000E+00  0.39999999673E+01  0.40000000000E+01  0.51109989000E-03 0.  1.
     -623   -1    0    0    0    0  0.00000000000E+00  0.00000000000E+00  0.12525980253E-10  0.17130000000E+03  0.17130000000E+03 0.  1.
       11    1    1    2    0    0 -0.24147496789E-01  0.20757624767E-01  0.69550400260E-01  0.76495097777E-01  0.51109989000E-03 0.  1.
     -623    1    1    2    0    0  0.12030352438E+00 -0.11423979040E+00  0.55503779301E-01  0.17130008933E+03  0.17130000000E+03 0.  1.
      622    1    1    2    0    0 -0.96156027587E-01  0.93482165634E-01  0.38749457878E+01  0.39234155726E+01  0.60000000000E+00 0.  1.
</event>
<event>
 5   0  0.1014700E+04  0.9118800E+02  0.7818608E-02  0.1180000E+00
       11   -1    0    0    0    0  0.00000000000E+00  0.00000000000E+00  0.39999999673E+01  0.40000000000E+01  0.51109989000E-03 0. -1.
     -623   -1    0    0    0    0  0.00000000000E+00  0.00000000000E+00  0.12525980253E-10  0.17130000000E+03  0.17130000000E+03 0.  1.
       11    1    1    2    0    0  0.27502690492E-01  0.58440747252E-01  0.39297047053E+00  0.39824335632E+00  0.51109989000E-03 0. -1.
     -623    1    1    2    0    0  0.12769851572E-02 -0.55524130697E-01  0.55736215452E-01  0.17130001807E+03  0.17130000000E+03 0.  1.
      622    1    1    2    0    0 -0.28779675649E-01 -0.29166165550E-02  0.35512932814E+01  0.36017385728E+01  0.60000000000E+00 0. -1.
</event>
<event>
 5   0  0.1014700E+04  0.9118800E+02  0.7818608E-02  0.1180000E+00
       11   -1    0    0    0    0  0.00000000000E+00  0.00000000000E+00  0.39999999673E+01  0.40000000000E+01  0.51109989000E-03 0. -1.
     -623   -1    0    0    0    0  0.00000000000E+00  0.00000000000E+00  0.12525980253E-10  0.17130000000E+03  0.17130000000E+03 0.  1.
       11    1    1    2    0    0 -0.82337826777E-01 -0.41772781835E-01 -0.15087127561E-01  0.93554078809E-01  0.51109989000E-03 0. -1.
     -623    1    1    2    0    0  0.55287163681E-01 -0.10175729905E+00  0.15787140010E+00  0.17130011189E+03  0.17130000000E+03 0.  1.
      622    1    1    2    0    0  0.27050663096E-01  0.14353008088E+00  0.38572156948E+01  0.39063340281E+01  0.60000000000E+00 0. -1.
</event>
<event>
 5   0  0.1014700E+04  0.9118800E+02  0.7818608E-02  0.1180000E+00
       11   -1    0    0    0    0  0.00000000000E+00  0.00000000000E+00  0.39999999673E+01  0.40000000000E+01  0.51109989000E-03 0. -1.
     -623   -1    0    0    0    0  0.00000000000E+00  0.00000000000E+00  0.12525980253E-10  0.17130000000E+03  0.17130000000E+03 0.  1.
       11    1    1    2    0    0  0.15897244034E-01  0.53538865796E-01  0.14535653091E-01  0.57712034729E-01  0.51109989000E-03 0. -1.
     -623    1    1    2    0    0  0.69781741117E-01 -0.24380276029E+00  0.94910897506E-01  0.17130021400E+03  0.17130000000E+03 0.  1.
      622    1    1    2    0    0 -0.85678985152E-01  0.19026389450E+00  0.38905534168E+01  0.39420739626E+01  0.60000000000E+00 0. -1.
</event>
<event>
 5   0  0.1014700E+04  0.9118800E+02  0.7818608E-02  0.1180000E+00
       11   -1    0    0    0    0  0.00000000000E+00  0.00000000000E+00  0.39999999673E+01  0.40000000000E+01  0.51109989000E-03 0. -1.
     -623   -1    0    0    0    0  0.00000000000E+00  0.00000000000E+00  0.12525980253E-10  0.17130000000E+03  0.17130000000E+03 0. -1.
       11    1    1    2    0    0  0.90132451408E-01 -0.57060379268E-02  0.49305989860E+00  0.50126314695E+00  0.51109989000E-03 0. -1.
     -623    1    1    2    0    0 -0.30439777441E-01 -0.41445640902E-01  0.60892574999E-01  0.17130001854E+03  0.17130000000E+03 0. -1.
      622    1    1    2    0    0 -0.59692673967E-01  0.47151678829E-01  0.34460474938E+01  0.34987183118E+01  0.60000000000E+00 0. -1.
</event>
<event>
 5   0  0.1014700E+04  0.9118800E+02  0.7818608E-02  0.1180000E+00
       11   -1    0    0    0    0  0.00000000000E+00  0.00000000000E+00  0.39999999673E+01  0.40000000000E+01  0.51109989000E-03 0.  1.
     -623   -1    0    0    0    0  0.00000000000E+00  0.00000000000E+00  0.12525980253E-10  0.17130000000E+03  0.17130000000E+03 0.  1.
       11    1    1    2    0    0  0.39846761314E-01 -0.15412165795E-01  0.98831599766E-02  0.43854729687E-01  0.51109989000E-03 0.  1.
     -623    1    1    2    0    0  0.28436483408E-01 -0.12795009698E-01  0.80455031126E-01  0.17130002173E+03  0.17130000000E+03 0.  1.
      622    1    1    2    0    0 -0.68283244722E-01  0.28207175493E-01  0.39096617763E+01  0.39561235384E+01  0.60000000000E+00 0.  1.
</event>
<event>
 5   0  0.1014700E+04  0.9118800E+02  0.7818608E-02  0.1180000E+00
       11   -1    0    0    0    0  0.00000000000E+00  0.00000000000E+00  0.39999999673E+01  0.40000000000E+01  0.51109989000E-03 0. -1.
     -623   -1    0    0    0    0  0.00000000000E+00  0.00000000000E+00  0.12525980253E-10  0.17130000000E+03  0.17130000000E+03 0.  1.
       11    1    1    2    0    0  0.20802401848E-01 -0.28477789217E-01  0.32440135456E-01  0.47920225509E-01  0.51109989000E-03 0. -1.
     -623    1    1    2    0    0 -0.27343926710E-01  0.17717234619E-01  0.61325749812E-01  0.17130001408E+03  0.17130000000E+03 0.  1.
      622    1    1    2    0    0  0.65415248626E-02  0.10760554597E-01  0.39062340821E+01  0.39520656985E+01  0.60000000000E+00 0. -1.
</event>
<event>
 5   0  0.1014700E+04  0.9118800E+02  0.7818608E-02  0.1180000E+00
       11   -1    0    0    0    0  0.00000000000E+00  0.00000000000E+00  0.39999999673E+01  0.40000000000E+01  0.51109989000E-03 0. -1.
     -623   -1    0    0    0    0  0.00000000000E+00  0.00000000000E+00  0.12525980253E-10  0.17130000000E+03  0.17130000000E+03 0.  1.
       11    1    1    2    0    0  0.20367650450E-02  0.26868460925E-02 -0.11595933289E-02  0.36018652889E-02  0.51109989000E-03 0. -1.
     -623    1    1    2    0    0 -0.39121112341E-01 -0.39438578947E-01  0.50420286718E-01  0.17130001643E+03  0.17130000000E+03 0.  1.
      622    1    1    2    0    0  0.37084347296E-01  0.36751732854E-01  0.39507392740E+01  0.39963817072E+01  0.60000000000E+00 0. -1.
</event>
<event>
 5   0  0.1014700E+04  0.9118800E+02  0.7818608E-02  0.1180000E+00
       11   -1    0    0    0    0  0.00000000000E+00  0.00000000000E+00  0.39999999673E+01  0.40000000000E+01  0.51109989000E-03 0. -1.
     -623   -1    0    0    0    0  0.00000000000E+00  0.00000000000E+00  0.12525980253E-10  0.17130000000E+03  0.17130000000E+03 0. -1.
       11    1    1    2    0    0 -0.67498998760E-01  0.10314501775E+00  0.67007315148E+00  0.68131732628E+00  0.51109989000E-03 0. -1.
     -623    1    1    2    0    0  0.51659243435E-01 -0.25450677691E-01  0.66919556997E-01  0.17130002275E+03  0.17130000000E+03 0. -1.
      622    1    1    2    0    0  0.15839755325E-01 -0.77694340060E-01  0.32630072589E+01  0.33186599223E+01  0.60000000000E+00 0. -1.
</event>
<event>
 5   0  0.1014700E+04  0.9118800E+02  0.7818608E-02  0.1180000E+00
       11   -1    0    0    0    0  0.00000000000E+00  0.00000000000E+00  0.39999999673E+01  0.40000000000E+01  0.51109989000E-03 0. -1.
     -623   -1    0    0    0    0  0.00000000000E+00  0.00000000000E+00  0.12525980253E-10  0.17130000000E+03  0.17130000000E+03 0. -1.
       11    1    1    2    0    0 -0.20819901620E-01  0.14191274165E-03  0.15908718007E-01  0.26207574698E-01  0.51109989000E-03 0. -1.
     -623    1    1    2    0    0  0.34117837808E-01  0.18341518034E-02  0.55892431907E-01  0.17130001253E+03  0.17130000000E+03 0. -1.
      622    1    1    2    0    0 -0.13297936189E-01 -0.19760645451E-02  0.39281988174E+01  0.39737798995E+01  0.60000000000E+00 0. -1.
</event>
<event>
 5   0  0.1014700E+04  0.9118800E+02  0.7818608E-02  0.1180000E+00
       11   -1    0    0    0    0  0.00000000000E+00  0.00000000000E+00  0.39999999673E+01  0.40000000000E+01  0.51109989000E-03 0. -1.
     -623   -1    0    0    0    0  0.00000000000E+00  0.00000000000E+00  0.12525980253E-10  0.17130000000E+03  0.17130000000E+03 0. -1.
       11    1    1    2    0    0  0.68511708409E-02  0.10271019450E+00  0.70696134281E-01  0.12487804940E+00  0.51109989000E-03 0. -1.
     -623    1    1    2    0    0 -0.20447345014E-01 -0.64102120742E-01  0.10117626076E+00  0.17130004309E+03  0.17130000000E+03 0. -1.
      622    1    1    2    0    0  0.13596174174E-01 -0.38608073761E-01  0.38281275723E+01  0.38750788572E+01  0.60000000000E+00 0. -1.
</event>
<event>
 5   0  0.1014700E+04  0.9118800E+02  0.7818608E-02  0.1180000E+00
       11   -1    0    0    0    0  0.00000000000E+00  0.00000000000E+00  0.39999999673E+01  0.40000000000E+01  0.51109989000E-03 0.  1.
     -623   -1    0    0    0    0  0.00000000000E+00  0.00000000000E+00  0.12525980253E-10  0.17130000000E+03  0.17130000000E+03 0. -1.
       11    1    1    2    0    0  0.12251479310E+00 -0.88753232572E-02  0.27008732574E+00  0.29670873030E+00  0.51109989000E-03 0.  1.
     -623    1    1    2    0    0 -0.22514630911E+00  0.32919691168E-01  0.77241480194E-01  0.17130016854E+03  0.17130000000E+03 0. -1.
      622    1    1    2    0    0  0.10263151601E+00 -0.24044367910E-01  0.36526711614E+01  0.37031227327E+01  0.60000000000E+00 0.  1.
</event>
<event>
 5   0  0.1014700E+04  0.9118800E+02  0.7818608E-02  0.1180000E+00
       11   -1    0    0    0    0  0.00000000000E+00  0.00000000000E+00  0.39999999673E+01  0.40000000000E+01  0.51109989000E-03 0.  1.
     -623   -1    0    0    0    0  0.00000000000E+00  0.00000000000E+00  0.12525980253E-10  0.17130000000E+03  0.17130000000E+03 0.  1.
       11    1    1    2    0    0  0.13004799353E-01 -0.95595494332E-02 -0.29700218436E-01  0.33806419358E-01  0.51109989000E-03 0.  1.
     -623    1    1    2    0    0  0.29776409919E-01 -0.87879909537E-01  0.11065897926E+00  0.17130006087E+03  0.17130000000E+03 0.  1.
      622    1    1    2    0    0 -0.42781209272E-01  0.97439458971E-01  0.39190412065E+01  0.39661327081E+01  0.60000000000E+00 0.  1.
</event>
<event>
 5   0  0.1014700E+04  0.9118800E+02  0.7818608E-02  0.1180000E+00
       11   -1    0    0    0    0  0.00000000000E+00  0.00000000000E+00  0.39999999673E+01  0.40000000000E+01  0.51109989000E-03 0.  1.
     -623   -1    0    0    0    0  0.00000000000E+00  0.00000000000E+00  0.12525980253E-10  0.17130000000E+03  0.17130000000E+03 0.  1.
       11    1    1    2    0    0 -0.25996698160E-01 -0.34296534180E-01  0.65133659570E-01  0.78068786362E-01  0.51109989000E-03 0.  1.
     -623    1    1    2    0    0  0.16560160941E-01  0.23888964450E-02  0.59256614202E-01  0.17130001107E+03  0.17130000000E+03 0.  1.
      622    1    1    2    0    0  0.94365372186E-02  0.31907637734E-01  0.38756096936E+01  0.39219201474E+01  0.60000000000E+00 0.  1.
</event>
<event>
 5   0  0.1014700E+04  0.9118800E+02  0.7818608E-02  0.1180000E+00
       11   -1    0    0    0    0  0.00000000000E+00  0.00000000000E+00  0.39999999673E+01  0.40000000000E+01  0.51109989000E-03 0. -1.
     -623   -1    0    0    0    0  0.00000000000E+00  0.00000000000E+00  0.12525980253E-10  0.17130000000E+03  0.17130000000E+03 0.  1.
       11    1    1    2    0    0 -0.22360366678E-02  0.32975937367E-01  0.35320970463E-01  0.48376073453E-01  0.51109989000E-03 0. -1.
     -623    1    1    2    0    0  0.25802397163E-01 -0.24069994953E-01  0.58966765572E-01  0.17130001378E+03  0.17130000000E+03 0.  1.
      622    1    1    2    0    0 -0.23566360495E-01 -0.89059424144E-02  0.39057122313E+01  0.39516101431E+01  0.60000000000E+00 0. -1.
</event>
<event>
 5   0  0.1014700E+04  0.9118800E+02  0.7818608E-02  0.1180000E+00
       11   -1    0    0    0    0  0.00000000000E+00  0.00000000000E+00  0.39999999673E+01  0.40000000000E+01  0.51109989000E-03 0.  1.
     -623   -1    0    0    0    0  0.00000000000E+00  0.00000000000E+00  0.12525980253E-10  0.17130000000E+03  0.17130000000E+03 0. -1.
       11    1    1    2    0    0  0.51477120429E-01 -0.28324518340E-01  0.11746918042E+01  0.11761603923E+01  0.51109989000E-03 0.  1.
     -623    1    1    2    0    0  0.24710467374E-01  0.15792040795E+00  0.70136983993E-01  0.17130008893E+03  0.17130000000E+03 0. -1.
      622    1    1    2    0    0 -0.76187587803E-01 -0.12959588961E+00  0.27551711792E+01  0.28237506741E+01  0.60000000000E+00 0.  1.
</event>
<event>
 5   0  0.1014700E+04  0.9118800E+02  0.7818608E-02  0.1180000E+00
       11   -1    0    0    0    0  0.00000000000E+00  0.00000000000E+00  0.39999999673E+01  0.40000000000E+01  0.51109989000E-03 0. -1.
     -623   -1    0    0    0    0  0.00000000000E+00  0.00000000000E+00  0.12525980253E-10  0.17130000000E+03  0.17130000000E+03 0. -1.
       11    1    1    2    0    0 -0.18138225231E+00 -0.21755786613E+00  0.87960619677E+00  0.92408780383E+00  0.51109989000E-03 0. -1.
     -623    1    1    2    0    0 -0.30104104658E-01  0.67381396498E-01  0.11479533370E+00  0.17130005436E+03  0.17130000000E+03 0. -1.
      622    1    1    2    0    0  0.21148635697E+00  0.15017646963E+00  0.30055984369E+01  0.30758578340E+01  0.60000000000E+00 0. -1.
</event>
<event>
 5   0  0.1014700E+04  0.9118800E+02  0.7818608E-02  0.1180000E+00
       11   -1    0    0    0    0  0.00000000000E+00  0.00000000000E+00  0.39999999673E+01  0.40000000000E+01  0.51109989000E-03 0. -1.
     -623   -1    0    0    0    0  0.00000000000E+00  0.00000000000E+00  0.12525980253E-10  0.17130000000E+03  0.17130000000E+03 0.  1.
       11    1    1    2    0    0  0.16239005821E-01  0.18619417952E-01  0.14571592577E-01  0.28687637865E-01  0.51109989000E-03 0. -1.
     -623    1    1    2    0    0  0.12027679057E-01 -0.48332446875E-01  0.59934874781E-01  0.17130001773E+03  0.17130000000E+03 0.  1.
      622    1    1    2    0    0 -0.28266684877E-01  0.29713028923E-01  0.39254935000E+01  0.39712946363E+01  0.60000000000E+00 0. -1.
</event>
<event>
 5   0  0.1014700E+04  0.9118800E+02  0.7818608E-02  0.1180000E+00
       11   -1    0    0    0    0  0.00000000000E+00  0.00000000000E+00  0.39999999673E+01  0.40000000000E+01  0.51109989000E-03 0. -1.
     -623   -1    0    0    0    0  0.00000000000E+00  0.00000000000E+00  0.12525980253E-10  0.17130000000E+03  0.17130000000E+03 0.  1.
       11    1    1    2    0    0  0.30595098957E-01 -0.24490103125E-01  0.40494812452E-01  0.56355268519E-01  0.51109989000E-03 0. -1.
     -623    1    1    2    0    0  0.26071650437E-02 -0.41972446698E-02  0.62029141806E-01  0.17130001130E+03  0.17130000000E+03 0.  1.
      622    1    1    2    0    0 -0.33202264000E-01  0.28687347795E-01  0.38974760131E+01  0.39436334296E+01  0.60000000000E+00 0. -1.
</event>
<event>
 5   0  0.1014700E+04  0.9118800E+02  0.7818608E-02  0.1180000E+00
       11   -1    0    0    0    0  0.00000000000E+00  0.00000000000E+00  0.39999999673E+01  0.40000000000E+01  0.51109989000E-03 0.  1.
     -623   -1    0    0    0    0  0.00000000000E+00  0.00000000000E+00  0.12525980253E-10  0.17130000000E+03  0.17130000000E+03 0. -1.
       11    1    1    2    0    0 -0.44982868231E-01  0.28125667785E-01 -0.10718550441E-01  0.54126335257E-01  0.51109989000E-03 0.  1.
     -623    1    1    2    0    0  0.33651625651E-01 -0.48893690532E-02  0.11085429543E+00  0.17130003924E+03  0.17130000000E+03 0. -1.
      622    1    1    2    0    0  0.11331242580E-01 -0.23236298731E-01  0.38998642224E+01  0.39458344207E+01  0.60000000000E+00 0.  1.
</event>
<event>
 5   0  0.1014700E+04  0.9118800E+02  0.7818608E-02  0.1180000E+00
       11   -1    0    0    0    0  0.00000000000E+00  0.00000000000E+00  0.39999999673E+01  0.40000000000E+01  0.51109989000E-03 0. -1.
     -623   -1    0    0    0    0  0.00000000000E+00  0.00000000000E+00  0.12525980253E-10  0.17130000000E+03  0.17130000000E+03 0. -1.
       11    1    1    2    0    0 -0.67840944118E-01  0.91334857558E-02  0.17759830821E+00  0.19033453329E+00  0.51109989000E-03 0. -1.
     -623    1    1    2    0    0  0.61735946539E-01 -0.11307285413E+00  0.61782520032E-01  0.17130005959E+03  0.17130000000E+03 0. -1.
      622    1    1    2    0    0  0.61049975784E-02  0.10393936837E+00  0.37606191391E+01  0.38096058816E+01  0.60000000000E+00 0. -1.
</event>
<event>
 5   0  0.1014700E+04  0.9118800E+02  0.7818608E-02  0.1180000E+00
       11   -1    0    0    0    0  0.00000000000E+00  0.00000000000E+00  0.39999999673E+01  0.40000000000E+01  0.51109989000E-03 0.  1.
     -623   -1    0    0    0    0  0.00000000000E+00  0.00000000000E+00  0.12525980253E-10  0.17130000000E+03  0.17130000000E+03 0. -1.
       11    1    1    2    0    0  0.33786773890E-02 -0.19846553376E-02 -0.10569989248E-01  0.11284512108E-01  0.51109989000E-03 0.  1.
     -623    1    1    2    0    0 -0.24638397541E-01 -0.12989594902E-01  0.67341408641E-01  0.17130001550E+03  0.17130000000E+03 0. -1.
      622    1    1    2    0    0  0.21259720152E-01  0.14974250239E-01  0.39432285480E+01  0.39886999869E+01  0.60000000000E+00 0.  1.
</event>
<event>
 5   0  0.1014700E+04  0.9118800E+02  0.7818608E-02  0.1180000E+00
       11   -1    0    0    0    0  0.00000000000E+00  0.00000000000E+00  0.39999999673E+01  0.40000000000E+01  0.51109989000E-03 0. -1.
     -623   -1    0    0    0    0  0.00000000000E+00  0.00000000000E+00  0.12525980253E-10  0.17130000000E+03  0.17130000000E+03 0.  1.
       11    1    1    2    0    0 -0.70675217844E-01  0.77565778869E-01  0.50826806350E+00  0.51898759337E+00  0.51109989000E-03 0. -1.
     -623    1    1    2    0    0 -0.47363279154E-01 -0.63175028430E-01  0.64911966694E-01  0.17130003050E+03  0.17130000000E+03 0.  1.
      622    1    1    2    0    0  0.11803849700E+00 -0.14390750440E-01  0.34268199372E+01  0.34809819106E+01  0.60000000000E+00 0. -1.
</event>
<event>
 5   0  0.1014700E+04  0.9118800E+02  0.7818608E-02  0.1180000E+00
       11   -1    0    0    0    0  0.00000000000E+00  0.00000000000E+00  0.39999999673E+01  0.40000000000E+01  0.51109989000E-03 0. -1.
     -623   -1    0    0    0    0  0.00000000000E+00  0.00000000000E+00  0.12525980253E-10  0.17130000000E+03  0.17130000000E+03 0. -1.
       11    1    1    2    0    0 -0.75285860294E-02  0.20338132404E+00  0.34074333614E+00  0.39689661743E+00  0.51109989000E-03 0. -1.
     -623    1    1    2    0    0 -0.76606983371E-01  0.94061590660E-01  0.12002078438E+00  0.17130008500E+03  0.17130000000E+03 0. -1.
      622    1    1    2    0    0  0.84135569400E-01 -0.29744291470E+00  0.35392358468E+01  0.36030183820E+01  0.60000000000E+00 0. -1.
</event>
<event>
 5   0  0.1014700E+04  0.9118800E+02  0.7818608E-02  0.1180000E+00
       11   -1    0    0    0    0  0.00000000000E+00  0.00000000000E+00  0.39999999673E+01  0.40000000000E+01  0.51109989000E-03 0. -1.
     -623   -1    0    0    0    0  0.00000000000E+00  0.00000000000E+00  0.12525980253E-10  0.17130000000E+03  0.17130000000E+03 0. -1.
       11    1    1    2    0    0  0.33316661536E-02  0.51915354989E-01  0.89616607439E-01  0.10362288181E+00  0.51109989000E-03 0. -1.
     -623    1    1    2    0    0 -0.71326337700E-01 -0.54782949479E-01  0.61116649853E-01  0.17130003451E+03  0.17130000000E+03 0. -1.
      622    1    1    2    0    0  0.67994671546E-01  0.28675944904E-02  0.38492667101E+01  0.38963426060E+01  0.60000000000E+00 0. -1.
</event>
<event>
 5   0  0.1014700E+04  0.9118800E+02  0.7818608E-02  0.1180000E+00
       11   -1    0    0    0    0  0.00000000000E+00  0.00000000000E+00  0.39999999673E+01  0.40000000000E+01  0.51109989000E-03 0. -1.
     -623   -1    0    0    0    0  0.00000000000E+00  0.00000000000E+00  0.12525980253E-10  0.17130000000E+03  0.17130000000E+03 0. -1.
       11    1    1    2    0    0 -0.11642996959E-01  0.78136680235E-02  0.16067347493E-01  0.21331518106E-01  0.51109989000E-03 0. -1.
     -623    1    1    2    0    0  0.10643037584E-01  0.38325632749E-02  0.50790953879E-01  0.17130000790E+03  0.17130000000E+03 0. -1.
      622    1    1    2    0    0  0.99995937516E-03 -0.11646231298E-01  0.39331416660E+01  0.39786605786E+01  0.60000000000E+00 0. -1.
</event>
<event>
 5   0  0.1014700E+04  0.9118800E+02  0.7818608E-02  0.1180000E+00
       11   -1    0    0    0    0  0.00000000000E+00  0.00000000000E+00  0.39999999673E+01  0.40000000000E+01  0.51109989000E-03 0. -1.
     -623   -1    0    0    0    0  0.00000000000E+00  0.00000000000E+00  0.12525980253E-10  0.17130000000E+03  0.17130000000E+03 0. -1.
       11    1    1    2    0    0 -0.61230841582E-02  0.52378408195E-02  0.33005097669E+00  0.33014971691E+00  0.51109989000E-03 0. -1.
     -623    1    1    2    0    0  0.52994617601E-01 -0.76094645859E-01  0.50509171913E-01  0.17130003255E+03  0.17130000000E+03 0. -1.
      622    1    1    2    0    0 -0.46871533442E-01  0.70856805040E-01  0.36194398188E+01  0.36698177378E+01  0.60000000000E+00 0. -1.
</event>
<event>
 5   0  0.1014700E+04  0.9118800E+02  0.7818608E-02  0.1180000E+00
       11   -1    0    0    0    0  0.00000000000E+00  0.00000000000E+00  0.39999999673E+01  0.40000000000E+01  0.51109989000E-03 0. -1.
     -623   -1    0    0    0    0  0.00000000000E+00  0.00000000000E+00  0.12525980253E-10  0.17130000000E+03  0.17130000000E+03 0.  1.
       11    1    1    2    0    0  0.78982319727E-01  0.49861395934E-01  0.37837209257E-01  0.10077837695E+00  0.51109989000E-03 0. -1.
     -623    1    1    2    0    0 -0.81280121365E-01  0.15203678616E-02  0.10977919090E+00  0.17130005447E+03  0.17130000000E+03 0.  1.
      622    1    1    2    0    0  0.22978016379E-02 -0.51381763795E-01  0.38523835672E+01  0.38991671565E+01  0.60000000000E+00 0. -1.
</event>
<event>
 5   0  0.1014700E+04  0.9118800E+02  0.7818608E-02  0.1180000E+00
       11   -1    0    0    0    0  0.00000000000E+00  0.00000000000E+00  0.39999999673E+01  0.40000000000E+01  0.51109989000E-03 0. -1.
     -623   -1    0    0    0    0  0.00000000000E+00  0.00000000000E+00  0.12525980253E-10  0.17130000000E+03  0.17130000000E+03 0. -1.
       11    1    1    2    0    0 -0.22306793023E-01  0.13702067229E-01  0.14158138985E-01  0.29766655571E-01  0.51109989000E-03 0. -1.
     -623    1    1    2    0    0  0.95202470851E-02 -0.19897432420E-01  0.61245961839E-01  0.17130001237E+03  0.17130000000E+03 0. -1.
      622    1    1    2    0    0  0.12786545937E-01  0.61953651911E-02  0.39245958665E+01  0.39702209755E+01  0.60000000000E+00 0. -1.
</event>
<event>
 5   0  0.1014700E+04  0.9118800E+02  0.7818608E-02  0.1180000E+00
       11   -1    0    0    0    0  0.00000000000E+00  0.00000000000E+00  0.39999999673E+01  0.40000000000E+01  0.51109989000E-03 0. -1.
     -623   -1    0    0    0    0  0.00000000000E+00  0.00000000000E+00  0.12525980253E-10  0.17130000000E+03  0.17130000000E+03 0.  1.
       11    1    1    2    0    0  0.79884931400E-02 -0.31033510303E-01  0.10969624570E-01  0.33874602148E-01  0.51109989000E-03 0. -1.
     -623    1    1    2    0    0  0.50664321810E-01  0.20617777203E-01  0.69027480697E-01  0.17130002264E+03  0.17130000000E+03 0.  1.
      622    1    1    2    0    0 -0.58652814950E-01  0.10415733101E-01  0.39200028621E+01  0.39661027570E+01  0.60000000000E+00 0. -1.
</event>
<event>
 5   0  0.1014700E+04  0.9118800E+02  0.7818608E-02  0.1180000E+00
       11   -1    0    0    0    0  0.00000000000E+00  0.00000000000E+00  0.39999999673E+01  0.40000000000E+01  0.51109989000E-03 0. -1.
     -623   -1    0    0    0    0  0.00000000000E+00  0.00000000000E+00  0.12525980253E-10  0.17130000000E+03  0.17130000000E+03 0.  1.
       11    1    1    2    0    0 -0.12122165901E+00  0.13808487835E+00  0.45629655940E+00  0.49190338033E+00  0.51109989000E-03 0. -1.
     -623    1    1    2    0    0 -0.50050516970E-01 -0.65017515192E-01  0.92362173003E-01  0.17130004455E+03  0.17130000000E+03 0.  1.
      622    1    1    2    0    0  0.17127217598E+00 -0.73067363156E-01  0.34513412350E+01  0.35080520689E+01  0.60000000000E+00 0. -1.
</event>
<event>
 5   0  0.1014700E+04  0.9118800E+02  0.7818608E-02  0.1180000E+00
       11   -1    0    0    0    0  0.00000000000E+00  0.00000000000E+00  0.39999999673E+01  0.40000000000E+01  0.51109989000E-03 0.  1.
     -623   -1    0    0    0    0  0.00000000000E+00  0.00000000000E+00  0.12525980253E-10  0.17130000000E+03  0.17130000000E+03 0.  1.
       11    1    1    2    0    0 -0.15176838480E+00  0.11445431498E+00  0.10351983830E+01  0.10525062405E+01  0.51109989000E-03 0.  1.
     -623    1    1    2    0    0 -0.61274350046E-02 -0.15000005117E+00  0.83653084822E-01  0.17130008621E+03  0.17130000000E+03 0.  1.
      622    1    1    2    0    0  0.15789581981E+00  0.35545736188E-01  0.28811484995E+01  0.29474075499E+01  0.60000000000E+00 0.  1.
</event>
<event>
 5   0  0.1014700E+04  0.9118800E+02  0.7818608E-02  0.1180000E+00
       11   -1    0    0    0    0  0.00000000000E+00  0.00000000000E+00  0.39999999673E+01  0.40000000000E+01  0.51109989000E-03 0.  1.
     -623   -1    0    0    0    0  0.00000000000E+00  0.00000000000E+00  0.12525980253E-10  0.17130000000E+03  0.17130000000E+03 0. -1.
       11    1    1    2    0    0  0.12285454931E+00  0.57720887947E-01  0.41470704656E+00  0.43635666246E+00  0.51109989000E-03 0.  1.
     -623    1    1    2    0    0 -0.19653404666E+00 -0.10830509942E+00  0.73825211066E-01  0.17130016289E+03  0.17130000000E+03 0. -1.
      622    1    1    2    0    0  0.73679497358E-01  0.50584211473E-01  0.35114677097E+01  0.35634804486E+01  0.60000000000E+00 0.  1.
</event>
<event>
 5   0  0.1014700E+04  0.9118800E+02  0.7818608E-02  0.1180000E+00
       11   -1    0    0    0    0  0.00000000000E+00  0.00000000000E+00  0.39999999673E+01  0.40000000000E+01  0.51109989000E-03 0.  1.
     -623   -1    0    0    0    0  0.00000000000E+00  0.00000000000E+00  0.12525980253E-10  0.17130000000E+03  0.17130000000E+03 0.  1.
       11    1    1    2    0    0 -0.49349626213E-01 -0.59287160877E-01  0.14729334506E+00  0.16627069427E+00  0.51109989000E-03 0.  1.
     -623    1    1    2    0    0  0.34431659294E-01 -0.27586694282E-01  0.67265307075E-01  0.17130001889E+03  0.17130000000E+03 0.  1.
      622    1    1    2    0    0  0.14917966920E-01  0.86873855158E-01  0.37854413152E+01  0.38337104173E+01  0.60000000000E+00 0.  1.
</event>
<event>
 5   0  0.1014700E+04  0.9118800E+02  0.7818608E-02  0.1180000E+00
       11   -1    0    0    0    0  0.00000000000E+00  0.00000000000E+00  0.39999999673E+01  0.40000000000E+01  0.51109989000E-03 0. -1.
     -623   -1    0    0    0    0  0.00000000000E+00  0.00000000000E+00  0.12525980253E-10  0.17130000000E+03  0.17130000000E+03 0. -1.
       11    1    1    2    0    0 -0.10501140718E-01 -0.12724006919E-01  0.42708301528E-01  0.45786838185E-01  0.51109989000E-03 0. -1.
     -623    1    1    2    0    0  0.25647628367E-01 -0.24695990299E-01  0.49083997315E-01  0.17130001073E+03  0.17130000000E+03 0. -1.
      622    1    1    2    0    0 -0.15146487648E-01  0.37419997218E-01  0.39082076685E+01  0.39542024294E+01  0.60000000000E+00 0. -1.
</event>
<event>
 5   0  0.1014700E+04  0.9118800E+02  0.7818608E-02  0.1180000E+00
       11   -1    0    0    0    0  0.00000000000E+00  0.00000000000E+00  0.39999999673E+01  0.40000000000E+01  0.51109989000E-03 0.  1.
     -623   -1    0    0    0    0  0.00000000000E+00  0.00000000000E+00  0.12525980253E-10  0.17130000000E+03  0.17130000000E+03 0. -1.
       11    1    1    2    0    0 -0.21356818409E-01 -0.65713794111E-02  0.27943428948E-01  0.35782581823E-01  0.51109989000E-03 0.  1.
     -623    1    1    2    0    0  0.12056641434E-01  0.52064471253E-02  0.53528615571E-01  0.17130000887E+03  0.17130000000E+03 0. -1.
      622    1    1    2    0    0  0.93001769746E-02  0.13649322857E-02  0.39185279228E+01  0.39642085513E+01  0.60000000000E+00 0.  1.
</event>
<event>
 5   0  0.1014700E+04  0.9118800E+02  0.7818608E-02  0.1180000E+00
       11   -1    0    0    0    0  0.00000000000E+00  0.00000000000E+00  0.39999999673E+01  0.40000000000E+01  0.51109989000E-03 0.  1.
     -623   -1    0    0    0    0  0.00000000000E+00  0.00000000000E+00  0.12525980253E-10  0.17130000000E+03  0.17130000000E+03 0.  1.
       11    1    1    2    0    0 -0.87509343891E-01  0.10183089714E+00  0.12538253592E+00  0.18370753500E+00  0.51109989000E-03 0.  1.
     -623    1    1    2    0    0  0.20671527742E+00 -0.97607546044E-01  0.10786327306E+00  0.17130018649E+03  0.17130000000E+03 0.  1.
      622    1    1    2    0    0 -0.11920593353E+00 -0.42233510964E-02  0.37667541584E+01  0.38161059709E+01  0.60000000000E+00 0.  1.
</event>
<event>
 5   0  0.1014700E+04  0.9118800E+02  0.7818608E-02  0.1180000E+00
       11   -1    0    0    0    0  0.00000000000E+00  0.00000000000E+00  0.39999999673E+01  0.40000000000E+01  0.51109989000E-03 0. -1.
     -623   -1    0    0    0    0  0.00000000000E+00  0.00000000000E+00  0.12525980253E-10  0.17130000000E+03  0.17130000000E+03 0.  1.
       11    1    1    2    0    0 -0.39375638578E-02 -0.21582722319E-02  0.60879987775E-01  0.61047495280E-01  0.51109989000E-03 0. -1.
     -623    1    1    2    0    0  0.24410149904E-01 -0.30025997150E-01  0.46330736662E-01  0.17130001064E+03  0.17130000000E+03 0.  1.
      622    1    1    2    0    0 -0.20472586046E-01  0.32184269382E-01  0.38927892429E+01  0.39389418685E+01  0.60000000000E+00 0. -1.
</event>
<event>
 5   0  0.1014700E+04  0.9118800E+02  0.7818608E-02  0.1180000E+00
       11   -1    0    0    0    0  0.00000000000E+00  0.00000000000E+00  0.39999999673E+01  0.40000000000E+01  0.51109989000E-03 0.  1.
     -623   -1    0    0    0    0  0.00000000000E+00  0.00000000000E+00  0.12525980253E-10  0.17130000000E+03  0.17130000000E+03 0. -1.
       11    1    1    2    0    0  0.46444681753E-01 -0.83950160066E-01  0.16751734478E+00  0.19304678154E+00  0.51109989000E-03 0.  1.
     -623    1    1    2    0    0 -0.67414757111E-01 -0.42395598709E-02  0.74231463382E-01  0.17130002940E+03  0.17130000000E+03 0. -1.
      622    1    1    2    0    0  0.20970075358E-01  0.88189719937E-01  0.37582511592E+01  0.38069238167E+01  0.60000000000E+00 0.  1.
</event>
<event>
 5   0  0.1014700E+04  0.9118800E+02  0.7818608E-02  0.1180000E+00
       11   -1    0    0    0    0  0.00000000000E+00  0.00000000000E+00  0.39999999673E+01  0.40000000000E+01  0.51109989000E-03 0. -1.
     -623   -1    0    0    0    0  0.00000000000E+00  0.00000000000E+00  0.12525980253E-10  0.17130000000E+03  0.17130000000E+03 0.  1.
       11    1    1    2    0    0  0.69408650200E-02 -0.11100051105E+00  0.42242455173E+00  0.43682038893E+00  0.51109989000E-03 0. -1.
     -623    1    1    2    0    0  0.37745618265E-01 -0.47555006374E-02  0.67485991605E-01  0.17130001752E+03  0.17130000000E+03 0.  1.
      622    1    1    2    0    0 -0.44686483285E-01  0.11575601168E+00  0.35100894240E+01  0.35631620930E+01  0.60000000000E+00 0. -1.
</event>
<event>
 5   0  0.1014700E+04  0.9118800E+02  0.7818608E-02  0.1180000E+00
       11   -1    0    0    0    0  0.00000000000E+00  0.00000000000E+00  0.39999999673E+01  0.40000000000E+01  0.51109989000E-03 0.  1.
     -623   -1    0    0    0    0  0.00000000000E+00  0.00000000000E+00  0.12525980253E-10  0.17130000000E+03  0.17130000000E+03 0. -1.
       11    1    1    2    0    0  0.14072022076E-02  0.17719774091E-01  0.13224201106E+00  0.13343230990E+00  0.51109989000E-03 0.  1.
     -623    1    1    2    0    0 -0.39009821125E-01  0.16008434564E-01  0.48373031668E-01  0.17130001202E+03  0.17130000000E+03 0. -1.
      622    1    1    2    0    0  0.37602618917E-01 -0.33728208655E-01  0.38193849246E+01  0.38665556703E+01  0.60000000000E+00 0.  1.
</event>
<event>
 5   0  0.1014700E+04  0.9118800E+02  0.7818608E-02  0.1180000E+00
       11   -1    0    0    0    0  0.00000000000E+00  0.00000000000E+00  0.39999999673E+01  0.40000000000E+01  0.51109989000E-03 0.  1.
     -623   -1    0    0    0    0  0.00000000000E+00  0.00000000000E+00  0.12525980253E-10  0.17130000000E+03  0.17130000000E+03 0.  1.
       11    1    1    2    0    0 -0.42816021436E-01  0.55267206955E-01  0.10025393967E+00  0.12222434086E+00  0.51109989000E-03 0.  1.
     -623    1    1    2    0    0  0.72973459682E-03 -0.77022031280E-01  0.68994473364E-01  0.17130003121E+03  0.17130000000E+03 0.  1.
      622    1    1    2    0    0  0.42086286839E-01  0.21754824325E-01  0.38307515543E+01  0.38777444473E+01  0.60000000000E+00 0.  1.
</event>
<event>
 5   0  0.1014700E+04  0.9118800E+02  0.7818608E-02  0.1180000E+00
       11   -1    0    0    0    0  0.00000000000E+00  0.00000000000E+00  0.39999999673E+01  0.40000000000E+01  0.51109989000E-03 0. -1.
     -623   -1    0    0    0    0  0.00000000000E+00  0.00000000000E+00  0.12525980253E-10  0.17130000000E+03  0.17130000000E+03 0.  1.
       11    1    1    2    0    0 -0.12999148587E-01  0.14116160256E-01  0.13073739328E+00  0.13213921094E+00  0.51109989000E-03 0. -1.
     -623    1    1    2    0    0 -0.43059916319E-01 -0.61197839723E-02  0.48654721980E-01  0.17130001243E+03  0.17130000000E+03 0.  1.
      622    1    1    2    0    0  0.56059064907E-01 -0.79963762838E-02  0.38206078521E+01  0.38678483580E+01  0.60000000000E+00 0. -1.
</event>
<event>
 5   0  0.1014700E+04  0.9118800E+02  0.7818608E-02  0.1180000E+00
       11   -1    0    0    0    0  0.00000000000E+00  0.00000000000E+00  0.39999999673E+01  0.40000000000E+01  0.51109989000E-03 0.  1.
     -623   -1    0    0    0    0  0.00000000000E+00  0.00000000000E+00  0.12525980253E-10  0.17130000000E+03  0.17130000000E+03 0. -1.
       11    1    1    2    0    0 -0.65248751887E-02  0.32560389458E-02  0.39074885931E-01  0.39752782538E-01  0.51109989000E-03 0.  1.
     -623    1    1    2    0    0  0.16597826966E-01 -0.40342329560E-01  0.46594106627E-01  0.17130001189E+03  0.17130000000E+03 0. -1.
      622    1    1    2    0    0 -0.10072951777E-01  0.37086290614E-01  0.39143309748E+01  0.39602353260E+01  0.60000000000E+00 0.  1.
</event>
<event>
 5   0  0.1014700E+04  0.9118800E+02  0.7818608E-02  0.1180000E+00
       11   -1    0    0    0    0  0.00000000000E+00  0.00000000000E+00  0.39999999673E+01  0.40000000000E+01  0.51109989000E-03 0. -1.
     -623   -1    0    0    0    0  0.00000000000E+00  0.00000000000E+00  0.12525980253E-10  0.17130000000E+03  0.17130000000E+03 0.  1.
       11    1    1    2    0    0  0.59483891649E-01 -0.64952220347E-01  0.81331746237E+00  0.81807253964E+00  0.51109989000E-03 0. -1.
     -623    1    1    2    0    0 -0.54876825856E-01  0.84993292756E-01  0.61946021154E-01  0.17130004108E+03  0.17130000000E+03 0.  1.
      622    1    1    2    0    0 -0.46070657930E-02 -0.20041072409E-01  0.31247364838E+01  0.31818863844E+01  0.60000000000E+00 0. -1.
</event>
<event>
 5   0  0.1014700E+04  0.9118800E+02  0.7818608E-02  0.1180000E+00
       11   -1    0    0    0    0  0.00000000000E+00  0.00000000000E+00  0.39999999673E+01  0.40000000000E+01  0.51109989000E-03 0. -1.
     -623   -1    0    0    0    0  0.00000000000E+00  0.00000000000E+00  0.12525980253E-10  0.17130000000E+03  0.17130000000E+03 0. -1.
       11    1    1    2    0    0  0.25711176888E-01  0.16914518847E-01  0.19947832900E-01  0.36678915250E-01  0.51109989000E-03 0. -1.
     -623    1    1    2    0    0 -0.10808692371E-01 -0.10796588099E-01  0.62456078583E-01  0.17130001207E+03  0.17130000000E+03 0. -1.
      622    1    1    2    0    0 -0.14902484518E-01 -0.61179307481E-02  0.39175960559E+01  0.39633090177E+01  0.60000000000E+00 0. -1.
</event>
<event>
 5   0  0.1014700E+04  0.9118800E+02  0.7818608E-02  0.1180000E+00
       11   -1    0    0    0    0  0.00000000000E+00  0.00000000000E+00  0.39999999673E+01  0.40000000000E+01  0.51109989000E-03 0.  1.
     -623   -1    0    0    0    0  0.00000000000E+00  0.00000000000E+00  0.12525980253E-10  0.17130000000E+03  0.17130000000E+03 0.  1.
       11    1    1    2    0    0 -0.35636816920E-01  0.24795313390E-01  0.27141259715E+00  0.27486332858E+00  0.51109989000E-03 0.  1.
     -623    1    1    2    0    0  0.50179288216E-01 -0.13371603929E-01  0.52151127371E-01  0.17130001581E+03  0.17130000000E+03 0.  1.
      622    1    1    2    0    0 -0.14542471296E-01 -0.11423709460E-01  0.36764362428E+01  0.37251208614E+01  0.60000000000E+00 0.  1.
</event>
<event>
 5   0  0.1014700E+04  0.9118800E+02  0.7818608E-02  0.1180000E+00
       11   -1    0    0    0    0  0.00000000000E+00  0.00000000000E+00  0.39999999673E+01  0.40000000000E+01  0.51109989000E-03 0. -1.
     -623   -1    0    0    0    0  0.00000000000E+00  0.00000000000E+00  0.12525980253E-10  0.17130000000E+03  0.17130000000E+03 0.  1.
       11    1    1    2    0    0  0.35976848332E-01  0.19035583075E-01  0.25232490144E-01  0.47891824155E-01  0.51109989000E-03 0. -1.
     -623    1    1    2    0    0 -0.41579241269E-01  0.76457427099E-02  0.68584430333E-01  0.17130001895E+03  0.17130000000E+03 0.  1.
      622    1    1    2    0    0  0.56023929376E-02 -0.26681325785E-01  0.39061830469E+01  0.39520892292E+01  0.60000000000E+00 0. -1.
</event>
<event>
 5   0  0.1014700E+04  0.9118800E+02  0.7818608E-02  0.1180000E+00
       11   -1    0    0    0    0  0.00000000000E+00  0.00000000000E+00  0.39999999673E+01  0.40000000000E+01  0.51109989000E-03 0. -1.
     -623   -1    0    0    0    0  0.00000000000E+00  0.00000000000E+00  0.12525980253E-10  0.17130000000E+03  0.17130000000E+03 0. -1.
       11    1    1    2    0    0  0.48343246485E-01  0.52226176773E-01  0.49761554870E+00  0.50267896172E+00  0.51109989000E-03 0. -1.
     -623    1    1    2    0    0  0.13425032872E-01  0.46695596365E-01  0.58907314875E-01  0.17130001702E+03  0.17130000000E+03 0. -1.
      622    1    1    2    0    0 -0.61768279357E-01 -0.98921773139E-01  0.34434771038E+01  0.34973040191E+01  0.60000000000E+00 0. -1.
</event>
<event>
 5   0  0.1014700E+04  0.9118800E+02  0.7818608E-02  0.1180000E+00
       11   -1    0    0    0    0  0.00000000000E+00  0.00000000000E+00  0.39999999673E+01  0.40000000000E+01  0.51109989000E-03 0.  1.
     -623   -1    0    0    0    0  0.00000000000E+00  0.00000000000E+00  0.12525980253E-10  0.17130000000E+03  0.17130000000E+03 0.  1.
       11    1    1    2    0    0 -0.65282710453E-01  0.61140505193E-01  0.11201828832E+00  0.14334696300E+00  0.51109989000E-03 0.  1.
     -623    1    1    2    0    0  0.70811675573E-02 -0.72726993059E-01  0.78783465320E-01  0.17130003370E+03  0.17130000000E+03 0.  1.
      622    1    1    2    0    0  0.58201542895E-01  0.11586487866E-01  0.38091982137E+01  0.38566193353E+01  0.60000000000E+00 0.  1.
</event>
<event>
 5   0  0.1014700E+04  0.9118800E+02  0.7818608E-02  0.1180000E+00
       11   -1    0    0    0    0  0.00000000000E+00  0.00000000000E+00  0.39999999673E+01  0.40000000000E+01  0.51109989000E-03 0.  1.
     -623   -1    0    0    0    0  0.00000000000E+00  0.00000000000E+00  0.12525980253E-10  0.17130000000E+03  0.17130000000E+03 0.  1.
       11    1    1    2    0    0 -0.19137582190E-01 -0.21710881520E-01  0.15937970439E+00  0.16198691559E+00  0.51109989000E-03 0.  1.
     -623    1    1    2    0    0  0.51210261286E-01 -0.40128742046E-01  0.50456709402E-01  0.17130001979E+03  0.17130000000E+03 0.  1.
      622    1    1    2    0    0 -0.32072679096E-01  0.61839623567E-01  0.37901635536E+01  0.38379932984E+01  0.60000000000E+00 0.  1.
</event>
<event>
 5   0  0.1014700E+04  0.9118800E+02  0.7818608E-02  0.1180000E+00
       11   -1    0    0    0    0  0.00000000000E+00  0.00000000000E+00  0.39999999673E+01  0.40000000000E+01  0.51109989000E-03 0. -1.
     -623   -1    0    0    0    0  0.00000000000E+00  0.00000000000E+00  0.12525980253E-10  0.17130000000E+03  0.17130000000E+03 0. -1.
       11    1    1    2    0    0 -0.11534220629E+00  0.17254576861E-01  0.10969959538E+01  0.11031781039E+01  0.51109989000E-03 0. -1.
     -623    1    1    2    0    0 -0.45631695944E-01  0.87571713272E-01  0.75564448704E-01  0.17130004513E+03  0.17130000000E+03 0. -1.
      622    1    1    2    0    0  0.16097390224E+00 -0.10482629013E+00  0.28274395648E+01  0.28967767676E+01  0.60000000000E+00 0. -1.
</event>
<event>
 5   0  0.1014700E+04  0.9118800E+02  0.7818608E-02  0.1180000E+00
       11   -1    0    0    0    0  0.00000000000E+00  0.00000000000E+00  0.39999999673E+01  0.40000000000E+01  0.51109989000E-03 0. -1.
     -623   -1    0    0    0    0  0.00000000000E+00  0.00000000000E+00  0.12525980253E-10  0.17130000000E+03  0.17130000000E+03 0.  1.
       11    1    1    2    0    0 -0.77099810186E-01  0.22082007604E-01  0.74984572927E+00  0.75412258600E+00  0.51109989000E-03 0. -1.
     -623    1    1    2    0    0 -0.21268383946E-02 -0.26388865301E-01  0.61213898040E-01  0.17130001298E+03  0.17130000000E+03 0.  1.
      622    1    1    2    0    0  0.79226648581E-01  0.43068576968E-02  0.31889403401E+01  0.32458644308E+01  0.60000000000E+00 0. -1.
</event>
<event>
 5   0  0.1014700E+04  0.9118800E+02  0.7818608E-02  0.1180000E+00
       11   -1    0    0    0    0  0.00000000000E+00  0.00000000000E+00  0.39999999673E+01  0.40000000000E+01  0.51109989000E-03 0. -1.
     -623   -1    0    0    0    0  0.00000000000E+00  0.00000000000E+00  0.12525980253E-10  0.17130000000E+03  0.17130000000E+03 0.  1.
       11    1    1    2    0    0 -0.94919402452E-01  0.48140392727E-01  0.12944262384E+00  0.16757936765E+00  0.51109989000E-03 0. -1.
     -623    1    1    2    0    0  0.11286811735E-02 -0.70858845846E-01  0.86663226741E-01  0.17130003658E+03  0.17130000000E+03 0.  1.
      622    1    1    2    0    0  0.93790721278E-01  0.22718453119E-01  0.37838941168E+01  0.38323840510E+01  0.60000000000E+00 0. -1.
</event>
<event>
 5   0  0.1014700E+04  0.9118800E+02  0.7818608E-02  0.1180000E+00
       11   -1    0    0    0    0  0.00000000000E+00  0.00000000000E+00  0.39999999673E+01  0.40000000000E+01  0.51109989000E-03 0. -1.
     -623   -1    0    0    0    0  0.00000000000E+00  0.00000000000E+00  0.12525980253E-10  0.17130000000E+03  0.17130000000E+03 0. -1.
       11    1    1    2    0    0 -0.15088853586E+00  0.16726397989E+00  0.30144347180E+00  0.37631505037E+00  0.51109989000E-03 0. -1.
     -623    1    1    2    0    0 -0.16305207313E-01  0.38285868609E-01  0.13478501121E+00  0.17130005808E+03  0.17130000000E+03 0. -1.
      622    1    1    2    0    0  0.16719374317E+00 -0.20554984850E+00  0.35637714844E+01  0.36236268683E+01  0.60000000000E+00 0. -1.
</event>
<event>
 5   0  0.1014700E+04  0.9118800E+02  0.7818608E-02  0.1180000E+00
       11   -1    0    0    0    0  0.00000000000E+00  0.00000000000E+00  0.39999999673E+01  0.40000000000E+01  0.51109989000E-03 0.  1.
     -623   -1    0    0    0    0  0.00000000000E+00  0.00000000000E+00  0.12525980253E-10  0.17130000000E+03  0.17130000000E+03 0.  1.
       11    1    1    2    0    0 -0.90407450614E-01 -0.90952190929E-01  0.59364090375E+00  0.60733482692E+00  0.51109989000E-03 0.  1.
     -623    1    1    2    0    0 -0.21070222219E-01  0.20360670995E-01  0.69796002932E-01  0.17130001673E+03  0.17130000000E+03 0.  1.
      622    1    1    2    0    0  0.11147767283E+00  0.70591519934E-01  0.33365630607E+01  0.33926484481E+01  0.60000000000E+00 0.  1.
</event>
<event>
 5   0  0.1014700E+04  0.9118800E+02  0.7818608E-02  0.1180000E+00
       11   -1    0    0    0    0  0.00000000000E+00  0.00000000000E+00  0.39999999673E+01  0.40000000000E+01  0.51109989000E-03 0. -1.
     -623   -1    0    0    0    0  0.00000000000E+00  0.00000000000E+00  0.12525980253E-10  0.17130000000E+03  0.17130000000E+03 0. -1.
       11    1    1    2    0    0  0.18559942444E-01  0.43712782832E-01  0.11097585679E+00  0.12071114637E+00  0.51109989000E-03 0. -1.
     -623    1    1    2    0    0 -0.16536848255E-02 -0.47969085782E-02  0.56660811536E-01  0.17130000945E+03  0.17130000000E+03 0. -1.
      622    1    1    2    0    0 -0.16906257619E-01 -0.38915874253E-01  0.38323632990E+01  0.38792794077E+01  0.60000000000E+00 0. -1.
</event>
<event>
 5   0  0.1014700E+04  0.9118800E+02  0.7818608E-02  0.1180000E+00
       11   -1    0    0    0    0  0.00000000000E+00  0.00000000000E+00  0.39999999673E+01  0.40000000000E+01  0.51109989000E-03 0.  1.
     -623   -1    0    0    0    0  0.00000000000E+00  0.00000000000E+00  0.12525980253E-10  0.17130000000E+03  0.17130000000E+03 0.  1.
       11    1    1    2    0    0 -0.69583208450E-04  0.75089457596E-01  0.50524898092E-01  0.90506673976E-01  0.51109989000E-03 0.  1.
     -623    1    1    2    0    0  0.17120326574E-01  0.10481467201E-01  0.87307051935E-01  0.17130002343E+03  0.17130000000E+03 0.  1.
      622    1    1    2    0    0 -0.17050743366E-01 -0.85570924797E-01  0.38621680173E+01  0.39094699008E+01  0.60000000000E+00 0.  1.
</event>
<event>
 5   0  0.1014700E+04  0.9118800E+02  0.7818608E-02  0.1180000E+00
       11   -1    0    0    0    0  0.00000000000E+00  0.00000000000E+00  0.39999999673E+01  0.40000000000E+01  0.51109989000E-03 0.  1.
     -623   -1    0    0    0    0  0.00000000000E+00  0.00000000000E+00  0.12525980253E-10  0.17130000000E+03  0.17130000000E+03 0.  1.
       11    1    1    2    0    0  0.13527444700E-01 -0.10765574173E-01  0.37061019075E-01  0.40898284870E-01  0.51109989000E-03 0.  1.
     -623    1    1    2    0    0  0.78732200858E-01  0.77897305593E-01  0.51273879686E-01  0.17130004348E+03  0.17130000000E+03 0.  1.
      622    1    1    2    0    0 -0.92259645559E-01 -0.67131731420E-01  0.39116650686E+01  0.39590582366E+01  0.60000000000E+00 0.  1.
</event>
<event>
 5   0  0.1014700E+04  0.9118800E+02  0.7818608E-02  0.1180000E+00
       11   -1    0    0    0    0  0.00000000000E+00  0.00000000000E+00  0.39999999673E+01  0.40000000000E+01  0.51109989000E-03 0. -1.
     -623   -1    0    0    0    0  0.00000000000E+00  0.00000000000E+00  0.12525980253E-10  0.17130000000E+03  0.17130000000E+03 0.  1.
       11    1    1    2    0    0  0.31392068214E-01  0.95411264417E-02  0.13980478193E-01  0.35668053411E-01  0.51109989000E-03 0. -1.
     -623    1    1    2    0    0  0.10744946484E+00  0.63606049492E-01  0.70559839726E-01  0.17130006004E+03  0.17130000000E+03 0.  1.
      622    1    1    2    0    0 -0.13884153306E+00 -0.73147175934E-01  0.39154596494E+01  0.39642719063E+01  0.60000000000E+00 0. -1.
</event>
<event>
 5   0  0.1014700E+04  0.9118800E+02  0.7818608E-02  0.1180000E+00
       11   -1    0    0    0    0  0.00000000000E+00  0.00000000000E+00  0.39999999673E+01  0.40000000000E+01  0.51109989000E-03 0.  1.
     -623   -1    0    0    0    0  0.00000000000E+00  0.00000000000E+00  0.12525980253E-10  0.17130000000E+03  0.17130000000E+03 0. -1.
       11    1    1    2    0    0  0.41259178120E-01 -0.53572467297E-01  0.17675262392E-01  0.69892811892E-01  0.51109989000E-03 0.  1.
     -623    1    1    2    0    0 -0.12253987495E+00  0.55603174106E-01  0.99221496364E-01  0.17130008159E+03  0.17130000000E+03 0. -1.
      622    1    1    2    0    0  0.81280696826E-01 -0.20307068092E-02  0.38831032086E+01  0.39300255984E+01  0.60000000000E+00 0.  1.
</event>
<event>
 5   0  0.1014700E+04  0.9118800E+02  0.7818608E-02  0.1180000E+00
       11   -1    0    0    0    0  0.00000000000E+00  0.00000000000E+00  0.39999999673E+01  0.40000000000E+01  0.51109989000E-03 0.  1.
     -623   -1    0    0    0    0  0.00000000000E+00  0.00000000000E+00  0.12525980253E-10  0.17130000000E+03  0.17130000000E+03 0. -1.
       11    1    1    2    0    0  0.75892961759E-01 -0.17707295443E-01  0.45054694289E+00  0.45723746448E+00  0.51109989000E-03 0.  1.
     -623    1    1    2    0    0  0.13683987130E-02  0.88577165909E-01  0.59476081342E-01  0.17130003323E+03  0.17130000000E+03 0. -1.
      622    1    1    2    0    0 -0.77261360472E-01 -0.70869870466E-01  0.34899769431E+01  0.35427293038E+01  0.60000000000E+00 0.  1.
</event>
<event>
 5   0  0.1014700E+04  0.9118800E+02  0.7818608E-02  0.1180000E+00
       11   -1    0    0    0    0  0.00000000000E+00  0.00000000000E+00  0.39999999673E+01  0.40000000000E+01  0.51109989000E-03 0. -1.
     -623   -1    0    0    0    0  0.00000000000E+00  0.00000000000E+00  0.12525980253E-10  0.17130000000E+03  0.17130000000E+03 0.  1.
       11    1    1    2    0    0 -0.22986521427E-01 -0.85622809804E-01  0.47960021744E+00  0.48772561499E+00  0.51109989000E-03 0. -1.
     -623    1    1    2    0    0  0.49645600830E-01  0.24376757669E-01  0.60418246217E-01  0.17130001958E+03  0.17130000000E+03 0.  1.
      622    1    1    2    0    0 -0.26659079403E-01  0.61246052135E-01  0.34599815037E+01  0.35122548016E+01  0.60000000000E+00 0. -1.
</event>
<event>
 5   0  0.1014700E+04  0.9118800E+02  0.7818608E-02  0.1180000E+00
       11   -1    0    0    0    0  0.00000000000E+00  0.00000000000E+00  0.39999999673E+01  0.40000000000E+01  0.51109989000E-03 0. -1.
     -623   -1    0    0    0    0  0.00000000000E+00  0.00000000000E+00  0.12525980253E-10  0.17130000000E+03  0.17130000000E+03 0. -1.
       11    1    1    2    0    0  0.22990793342E+00 -0.12994853242E+00  0.94994240480E+00  0.98596912355E+00  0.51109989000E-03 0. -1.
     -623    1    1    2    0    0 -0.28604416624E+00  0.11504785707E+00  0.97233486255E-01  0.17130030505E+03  0.17130000000E+03 0. -1.
      622    1    1    2    0    0  0.56136232828E-01  0.14900675347E-01  0.29528240763E+01  0.30137258224E+01  0.60000000000E+00 0. -1.
</event>
<event>
 5   0  0.1014700E+04  0.9118800E+02  0.7818608E-02  0.1180000E+00
       11   -1    0    0    0    0  0.00000000000E+00  0.00000000000E+00  0.39999999673E+01  0.40000000000E+01  0.51109989000E-03 0. -1.
     -623   -1    0    0    0    0  0.00000000000E+00  0.00000000000E+00  0.12525980253E-10  0.17130000000E+03  0.17130000000E+03 0. -1.
       11    1    1    2    0    0  0.66428338918E-01 -0.52540761780E-01  0.36694255057E+00  0.37659043071E+00  0.51109989000E-03 0. -1.
     -623    1    1    2    0    0 -0.11112200182E+00  0.68719616375E-01  0.60047441927E-01  0.17130006035E+03  0.17130000000E+03 0. -1.
      622    1    1    2    0    0  0.44693662901E-01 -0.16178854595E-01  0.35730099749E+01  0.36233492185E+01  0.60000000000E+00 0. -1.
</event>
<event>
 5   0  0.1014700E+04  0.9118800E+02  0.7818608E-02  0.1180000E+00
       11   -1    0    0    0    0  0.00000000000E+00  0.00000000000E+00  0.39999999673E+01  0.40000000000E+01  0.51109989000E-03 0.  1.
     -623   -1    0    0    0    0  0.00000000000E+00  0.00000000000E+00  0.12525980253E-10  0.17130000000E+03  0.17130000000E+03 0. -1.
       11    1    1    2    0    0  0.96569054658E-01  0.93438498416E-01  0.34089836213E+00  0.36642637709E+00  0.51109989000E-03 0.  1.
     -623    1    1    2    0    0  0.38953318650E-01 -0.55279637361E-01  0.78206728403E-01  0.17130003120E+03  0.17130000000E+03 0. -1.
      622    1    1    2    0    0 -0.13552237331E+00 -0.38158861055E-01  0.35808948768E+01  0.36335424218E+01  0.60000000000E+00 0.  1.
</event>
<event>
 5   0  0.1014700E+04  0.9118800E+02  0.7818608E-02  0.1180000E+00
       11   -1    0    0    0    0  0.00000000000E+00  0.00000000000E+00  0.39999999673E+01  0.40000000000E+01  0.51109989000E-03 0. -1.
     -623   -1    0    0    0    0  0.00000000000E+00  0.00000000000E+00  0.12525980253E-10  0.17130000000E+03  0.17130000000E+03 0.  1.
       11    1    1    2    0    0  0.49105547717E-01 -0.19328872144E-01  0.18134708380E+00  0.18887028919E+00  0.51109989000E-03 0. -1.
     -623    1    1    2    0    0 -0.64486546004E-01 -0.91765750313E-01  0.56767782153E-01  0.17130004612E+03  0.17130000000E+03 0.  1.
      622    1    1    2    0    0  0.15380998287E-01  0.11109462246E+00  0.37618851014E+01  0.38110835869E+01  0.60000000000E+00 0. -1.
</event>
<event>
 5   0  0.1014700E+04  0.9118800E+02  0.7818608E-02  0.1180000E+00
       11   -1    0    0    0    0  0.00000000000E+00  0.00000000000E+00  0.39999999673E+01  0.40000000000E+01  0.51109989000E-03 0. -1.
     -623   -1    0    0    0    0  0.00000000000E+00  0.00000000000E+00  0.12525980253E-10  0.17130000000E+03  0.17130000000E+03 0. -1.
       11    1    1    2    0    0 -0.33297420840E-01 -0.11667369450E+00  0.57933963788E+00  0.59190890048E+00  0.51109989000E-03 0. -1.
     -623    1    1    2    0    0 -0.13621167590E+00  0.57635425026E-01  0.70685483433E-01  0.17130007844E+03  0.17130000000E+03 0. -1.
      622    1    1    2    0    0  0.16950909674E+00  0.59038269477E-01  0.33499748460E+01  0.34080126643E+01  0.60000000000E+00 0. -1.
</event>
<event>
 5   0  0.1014700E+04  0.9118800E+02  0.7818608E-02  0.1180000E+00
       11   -1    0    0    0    0  0.00000000000E+00  0.00000000000E+00  0.39999999673E+01  0.40000000000E+01  0.51109989000E-03 0. -1.
     -623   -1    0    0    0    0  0.00000000000E+00  0.00000000000E+00  0.12525980253E-10  0.17130000000E+03  0.17130000000E+03 0.  1.
       11    1    1    2    0    0  0.45830849903E-01  0.36229062513E-02  0.37567637775E+00  0.37847931816E+00  0.51109989000E-03 0. -1.
     -623    1    1    2    0    0 -0.76098852106E-02 -0.25414910121E-01  0.53133066707E-01  0.17130001029E+03  0.17130000000E+03 0.  1.
      622    1    1    2    0    0 -0.38220964692E-01  0.21792003870E-01  0.35711905229E+01  0.36215103872E+01  0.60000000000E+00 0. -1.
</event>
<event>
 5   0  0.1014700E+04  0.9118800E+02  0.7818608E-02  0.1180000E+00
       11   -1    0    0    0    0  0.00000000000E+00  0.00000000000E+00  0.39999999673E+01  0.40000000000E+01  0.51109989000E-03 0.  1.
     -623   -1    0    0    0    0  0.00000000000E+00  0.00000000000E+00  0.12525980253E-10  0.17130000000E+03  0.17130000000E+03 0.  1.
       11    1    1    2    0    0 -0.53626955449E-01 -0.10164073030E-01  0.57828289755E+00  0.58085327713E+00  0.51109989000E-03 0.  1.
     -623    1    1    2    0    0  0.48067035425E-01 -0.19513090357E-01  0.55779333083E-01  0.17130001694E+03  0.17130000000E+03 0.  1.
      622    1    1    2    0    0  0.55599200244E-02  0.29677163387E-01  0.33659377367E+01  0.34191297861E+01  0.60000000000E+00 0.  1.
</event>
<event>
 5   0  0.1014700E+04  0.9118800E+02  0.7818608E-02  0.1180000E+00
       11   -1    0    0    0    0  0.00000000000E+00  0.00000000000E+00  0.39999999673E+01  0.40000000000E+01  0.51109989000E-03 0.  1.
     -623   -1    0    0    0    0  0.00000000000E+00  0.00000000000E+00  0.12525980253E-10  0.17130000000E+03  0.17130000000E+03 0. -1.
       11    1    1    2    0    0 -0.31000701553E-01 -0.13139920576E-01 -0.84733686133E-02  0.34724058043E-01  0.51109989000E-03 0.  1.
     -623    1    1    2    0    0  0.42763817167E-01  0.14926514620E-01  0.88901765940E-01  0.17130002906E+03  0.17130000000E+03 0. -1.
      622    1    1    2    0    0 -0.11763115614E-01 -0.17865940434E-02  0.39195715700E+01  0.39652468845E+01  0.60000000000E+00 0.  1.
</event>
<event>
 5   0  0.1014700E+04  0.9118800E+02  0.7818608E-02  0.1180000E+00
       11   -1    0    0    0    0  0.00000000000E+00  0.00000000000E+00  0.39999999673E+01  0.40000000000E+01  0.51109989000E-03 0. -1.
     -623   -1    0    0    0    0  0.00000000000E+00  0.00000000000E+00  0.12525980253E-10  0.17130000000E+03  0.17130000000E+03 0.  1.
       11    1    1    2    0    0 -0.81155786838E-01 -0.69069720680E-01  0.21226471430E+00  0.23751517469E+00  0.51109989000E-03 0. -1.
     -623    1    1    2    0    0  0.54856568680E-01  0.37314725790E-01  0.73657145429E-01  0.17130002868E+03  0.17130000000E+03 0.  1.
      622    1    1    2    0    0  0.26299218158E-01  0.31754994890E-01  0.37140781076E+01  0.37624561417E+01  0.60000000000E+00 0.  0.
</event>
<event>
 5   0  0.1014700E+04  0.9118800E+02  0.7818608E-02  0.1180000E+00
       11   -1    0    0    0    0  0.00000000000E+00  0.00000000000E+00  0.39999999673E+01  0.40000000000E+01  0.51109989000E-03 0.  1.
     -623   -1    0    0    0    0  0.00000000000E+00  0.00000000000E+00  0.12525980253E-10  0.17130000000E+03  0.17130000000E+03 0.  1.
       11    1    1    2    0    0  0.64473798773E-02 -0.62652375001E-02  0.25598847618E+00  0.25614679983E+00  0.51109989000E-03 0.  1.
     -623    1    1    2    0    0 -0.13586409647E-01  0.10611733346E+00  0.49947237732E-01  0.17130004069E+03  0.17130000000E+03 0.  1.
      622    1    1    2    0    0  0.71390297699E-02 -0.99852095961E-01  0.36940642534E+01  0.37438125107E+01  0.60000000000E+00 0.  1.
</event>
<event>
 5   0  0.1014700E+04  0.9118800E+02  0.7818608E-02  0.1180000E+00
       11   -1    0    0    0    0  0.00000000000E+00  0.00000000000E+00  0.39999999673E+01  0.40000000000E+01  0.51109989000E-03 0. -1.
     -623   -1    0    0    0    0  0.00000000000E+00  0.00000000000E+00  0.12525980253E-10  0.17130000000E+03  0.17130000000E+03 0. -1.
       11    1    1    2    0    0  0.12906768232E-01  0.19030535803E+00  0.40909060482E+00  0.45137356827E+00  0.51109989000E-03 0. -1.
     -623    1    1    2    0    0 -0.76927522097E-02  0.21644965507E-01  0.99837605959E-01  0.17130003063E+03  0.17130000000E+03 0. -1.
      622    1    1    2    0    0 -0.52140160219E-02 -0.21195032353E+00  0.34910717566E+01  0.35485957977E+01  0.60000000000E+00 0. -1.
</event>
<event>
 5   0  0.1014700E+04  0.9118800E+02  0.7818608E-02  0.1180000E+00
       11   -1    0    0    0    0  0.00000000000E+00  0.00000000000E+00  0.39999999673E+01  0.40000000000E+01  0.51109989000E-03 0. -1.
     -623   -1    0    0    0    0  0.00000000000E+00  0.00000000000E+00  0.12525980253E-10  0.17130000000E+03  0.17130000000E+03 0.  1.
       11    1    1    2    0    0  0.84726370430E-02  0.13134436382E+00  0.13126227266E+00  0.18588483783E+00  0.51109989000E-03 0. -1.
     -623    1    1    2    0    0  0.97404289694E-01 -0.19785188981E+00  0.10436311599E+00  0.17130017374E+03  0.17130000000E+03 0.  1.
      622    1    1    2    0    0 -0.10587692674E+00  0.66507525986E-01  0.37643745787E+01  0.38139414185E+01  0.60000000000E+00 0. -1.
</event>
<event>
 5   0  0.1014700E+04  0.9118800E+02  0.7818608E-02  0.1180000E+00
       11   -1    0    0    0    0  0.00000000000E+00  0.00000000000E+00  0.39999999673E+01  0.40000000000E+01  0.51109989000E-03 0.  1.
     -623   -1    0    0    0    0  0.00000000000E+00  0.00000000000E+00  0.12525980253E-10  0.17130000000E+03  0.17130000000E+03 0.  1.
       11    1    1    2    0    0  0.14809607273E+00 -0.13832909467E+00  0.49829618205E+00  0.53792818430E+00  0.51109989000E-03 0.  1.
     -623    1    1    2    0    0 -0.12465381489E+00  0.27240061405E-01  0.93985577512E-01  0.17130007330E+03  0.17130000000E+03 0.  1.
      622    1    1    2    0    0 -0.23442257843E-01  0.11108903326E+00  0.34077182078E+01  0.34619985119E+01  0.60000000000E+00 0.  1.
</event>
<event>
 5   0  0.1014700E+04  0.9118800E+02  0.7818608E-02  0.1180000E+00
       11   -1    0    0    0    0  0.00000000000E+00  0.00000000000E+00  0.39999999673E+01  0.40000000000E+01  0.51109989000E-03 0. -1.
     -623   -1    0    0    0    0  0.00000000000E+00  0.00000000000E+00  0.12525980253E-10  0.17130000000E+03  0.17130000000E+03 0.  1.
       11    1    1    2    0    0  0.14481451618E-01  0.62306889371E-01  0.65000304945E-01  0.91198474596E-01  0.51109989000E-03 0. -1.
     -623    1    1    2    0    0 -0.83698783900E-01  0.26345395799E-01  0.74199514908E-01  0.17130003854E+03  0.17130000000E+03 0.  1.
      622    1    1    2    0    0  0.69217332282E-01 -0.88652285170E-01  0.38608001475E+01  0.39087629815E+01  0.60000000000E+00 0. -1.
</event>
<event>
 5   0  0.1014700E+04  0.9118800E+02  0.7818608E-02  0.1180000E+00
       11   -1    0    0    0    0  0.00000000000E+00  0.00000000000E+00  0.39999999673E+01  0.40000000000E+01  0.51109989000E-03 0. -1.
     -623   -1    0    0    0    0  0.00000000000E+00  0.00000000000E+00  0.12525980253E-10  0.17130000000E+03  0.17130000000E+03 0.  1.
       11    1    1    2    0    0 -0.43436781411E-01  0.18597483961E-01  0.53117132126E-01  0.71093679995E-01  0.51109989000E-03 0. -1.
     -623    1    1    2    0    0  0.42332757385E-01 -0.40932210316E-01  0.64147858038E-01  0.17130002213E+03  0.17130000000E+03 0.  1.
      622    1    1    2    0    0  0.11040240263E-02  0.22334726355E-01  0.38827349772E+01  0.39288841879E+01  0.60000000000E+00 0. -1.
</event>
<event>
 5   0  0.1014700E+04  0.9118800E+02  0.7818608E-02  0.1180000E+00
       11   -1    0    0    0    0  0.00000000000E+00  0.00000000000E+00  0.39999999673E+01  0.40000000000E+01  0.51109989000E-03 0.  1.
     -623   -1    0    0    0    0  0.00000000000E+00  0.00000000000E+00  0.12525980253E-10  0.17130000000E+03  0.17130000000E+03 0. -1.
       11    1    1    2    0    0 -0.14420039137E-01 -0.50770154502E-01  0.13868778388E+00  0.14839174080E+00  0.51109989000E-03 0.  1.
     -623    1    1    2    0    0  0.36597554850E-01  0.79066931404E-01  0.56926544537E-01  0.17130003162E+03  0.17130000000E+03 0. -1.
      622    1    1    2    0    0 -0.22177515713E-01 -0.28296776903E-01  0.38043856390E+01  0.38515766434E+01  0.60000000000E+00 0.  1.
</event>
<event>
 5   0  0.1014700E+04  0.9118800E+02  0.7818608E-02  0.1180000E+00
       11   -1    0    0    0    0  0.00000000000E+00  0.00000000000E+00  0.39999999673E+01  0.40000000000E+01  0.51109989000E-03 0.  1.
     -623   -1    0    0    0    0  0.00000000000E+00  0.00000000000E+00  0.12525980253E-10  0.17130000000E+03  0.17130000000E+03 0. -1.
       11    1    1    2    0    0  0.63362490340E-01 -0.29927989223E-02  0.65547403529E+00  0.65853643346E+00  0.51109989000E-03 0.  1.
     -623    1    1    2    0    0  0.23430506903E-01 -0.82553503876E-01  0.59664521640E-01  0.17130003189E+03  0.17130000000E+03 0. -1.
      622    1    1    2    0    0 -0.86792997243E-01  0.85546302798E-01  0.32848614104E+01  0.33414316812E+01  0.60000000000E+00 0.  1.
</event>
<event>
 5   0  0.1014700E+04  0.9118800E+02  0.7818608E-02  0.1180000E+00
       11   -1    0    0    0    0  0.00000000000E+00  0.00000000000E+00  0.39999999673E+01  0.40000000000E+01  0.51109989000E-03 0. -1.
     -623   -1    0    0    0    0  0.00000000000E+00  0.00000000000E+00  0.12525980253E-10  0.17130000000E+03  0.17130000000E+03 0.  1.
       11    1    1    2    0    0 -0.10528691296E-01 -0.25028770266E+00  0.52261612432E+00  0.57955384742E+00  0.51109989000E-03 0. -1.
     -623    1    1    2    0    0 -0.14614993637E+00 -0.59648256067E-01  0.12805279917E+00  0.17130012059E+03  0.17130000000E+03 0.  1.
      622    1    1    2    0    0  0.15667862766E+00  0.30993595872E+00  0.33493310439E+01  0.34203255594E+01  0.60000000000E+00 0. -1.
</event>
<event>
 5   0  0.1014700E+04  0.9118800E+02  0.7818608E-02  0.1180000E+00
       11   -1    0    0    0    0  0.00000000000E+00  0.00000000000E+00  0.39999999673E+01  0.40000000000E+01  0.51109989000E-03 0.  1.
     -623   -1    0    0    0    0  0.00000000000E+00  0.00000000000E+00  0.12525980253E-10  0.17130000000E+03  0.17130000000E+03 0. -1.
       11    1    1    2    0    0  0.38515914619E-01  0.21468795783E-01  0.47120109533E-01  0.64536430127E-01  0.51109989000E-03 0.  1.
     -623    1    1    2    0    0 -0.28636199934E-01  0.80029354581E-01  0.64794005554E-01  0.17130003334E+03  0.17130000000E+03 0. -1.
      622    1    1    2    0    0 -0.98797146854E-02 -0.10149815036E+00  0.38880858523E+01  0.39354302278E+01  0.60000000000E+00 0.  1.
</event>
<event>
 5   0  0.1014700E+04  0.9118800E+02  0.7818608E-02  0.1180000E+00
       11   -1    0    0    0    0  0.00000000000E+00  0.00000000000E+00  0.39999999673E+01  0.40000000000E+01  0.51109989000E-03 0.  1.
     -623   -1    0    0    0    0  0.00000000000E+00  0.00000000000E+00  0.12525980253E-10  0.17130000000E+03  0.17130000000E+03 0.  1.
       11    1    1    2    0    0 -0.15258943916E-01  0.11435051845E-01  0.72714538601E-01  0.75174870300E-01  0.51109989000E-03 0.  1.
     -623    1    1    2    0    0  0.65917854461E-02 -0.25273931083E-01  0.48636716324E-01  0.17130000890E+03  0.17130000000E+03 0.  1.
      622    1    1    2    0    0  0.86671584698E-02  0.13838879238E-01  0.38786487124E+01  0.39248162337E+01  0.60000000000E+00 0.  1.
</event>
<event>
 5   0  0.1014700E+04  0.9118800E+02  0.7818608E-02  0.1180000E+00
       11   -1    0    0    0    0  0.00000000000E+00  0.00000000000E+00  0.39999999673E+01  0.40000000000E+01  0.51109989000E-03 0.  1.
     -623   -1    0    0    0    0  0.00000000000E+00  0.00000000000E+00  0.12525980253E-10  0.17130000000E+03  0.17130000000E+03 0.  1.
       11    1    1    2    0    0  0.73363091297E-02  0.63077061207E-01  0.14936356907E+00  0.16230303161E+00  0.51109989000E-03 0.  1.
     -623    1    1    2    0    0  0.53310788142E-01 -0.43292124537E-02  0.61092766983E-01  0.17130001924E+03  0.17130000000E+03 0.  1.
      622    1    1    2    0    0 -0.60647097272E-01 -0.58747848754E-01  0.37895436313E+01  0.38376777241E+01  0.60000000000E+00 0.  1.
</event>
<event>
 5   0  0.1014700E+04  0.9118800E+02  0.7818608E-02  0.1180000E+00
       11   -1    0    0    0    0  0.00000000000E+00  0.00000000000E+00  0.39999999673E+01  0.40000000000E+01  0.51109989000E-03 0. -1.
     -623   -1    0    0    0    0  0.00000000000E+00  0.00000000000E+00  0.12525980253E-10  0.17130000000E+03  0.17130000000E+03 0.  1.
       11    1    1    2    0    0 -0.11849749326E+00 -0.11360057709E+00  0.85672266133E+00  0.87230770184E+00  0.51109989000E-03 0. -1.
     -623    1    1    2    0    0 -0.14110967459E-01  0.12729697412E+00  0.76637487578E-01  0.17130006502E+03  0.17130000000E+03 0.  1.
      622    1    1    2    0    0  0.13260846072E+00 -0.13696397021E-01  0.30666398184E+01  0.31276272750E+01  0.60000000000E+00 0. -1.
</event>
<event>
 5   0  0.1014700E+04  0.9118800E+02  0.7818608E-02  0.1180000E+00
       11   -1    0    0    0    0  0.00000000000E+00  0.00000000000E+00  0.39999999673E+01  0.40000000000E+01  0.51109989000E-03 0.  1.
     -623   -1    0    0    0    0  0.00000000000E+00  0.00000000000E+00  0.12525980253E-10  0.17130000000E+03  0.17130000000E+03 0. -1.
       11    1    1    2    0    0  0.37363218407E-01 -0.14312306520E+00  0.21174648200E+00  0.25829644935E+00  0.51109989000E-03 0.  1.
     -623    1    1    2    0    0 -0.16609617406E+00  0.23517310605E+00  0.98636028193E-01  0.17130027035E+03  0.17130000000E+03 0. -1.
      622    1    1    2    0    0  0.12873295565E+00 -0.92050040855E-01  0.36896174572E+01  0.37414331965E+01  0.60000000000E+00 0.  1.
</event>
<event>
 5   0  0.1014700E+04  0.9118800E+02  0.7818608E-02  0.1180000E+00
       11   -1    0    0    0    0  0.00000000000E+00  0.00000000000E+00  0.39999999673E+01  0.40000000000E+01  0.51109989000E-03 0.  1.
     -623   -1    0    0    0    0  0.00000000000E+00  0.00000000000E+00  0.12525980253E-10  0.17130000000E+03  0.17130000000E+03 0.  1.
       11    1    1    2    0    0  0.42334236832E-01 -0.30002835981E-01  0.34720064935E+00  0.35105684711E+00  0.51109989000E-03 0.  1.
     -623    1    1    2    0    0  0.13489395780E-01  0.63247638443E-01  0.54131073517E-01  0.17130002076E+03  0.17130000000E+03 0.  1.
      622    1    1    2    0    0 -0.55823632612E-01 -0.33244802461E-01  0.35986682445E+01  0.36489223928E+01  0.60000000000E+00 0.  1.
</event>
<event>
 5   0  0.1014700E+04  0.9118800E+02  0.7818608E-02  0.1180000E+00
       11   -1    0    0    0    0  0.00000000000E+00  0.00000000000E+00  0.39999999673E+01  0.40000000000E+01  0.51109989000E-03 0. -1.
     -623   -1    0    0    0    0  0.00000000000E+00  0.00000000000E+00  0.12525980253E-10  0.17130000000E+03  0.17130000000E+03 0. -1.
       11    1    1    2    0    0 -0.51342323637E-01  0.61913809528E-01  0.52056155997E-01  0.95809491216E-01  0.51109989000E-03 0. -1.
     -623    1    1    2    0    0 -0.83545967361E-01  0.64950817367E-01  0.94639426714E-01  0.17130005883E+03  0.17130000000E+03 0. -1.
      622    1    1    2    0    0  0.13488829100E+00 -0.12686462689E+00  0.38533043847E+01  0.39041316788E+01  0.60000000000E+00 0. -1.
</event>
<event>
 5   0  0.1014700E+04  0.9118800E+02  0.7818608E-02  0.1180000E+00
       11   -1    0    0    0    0  0.00000000000E+00  0.00000000000E+00  0.39999999673E+01  0.40000000000E+01  0.51109989000E-03 0. -1.
     -623   -1    0    0    0    0  0.00000000000E+00  0.00000000000E+00  0.12525980253E-10  0.17130000000E+03  0.17130000000E+03 0. -1.
       11    1    1    2    0    0 -0.12819774242E+00 -0.62825599931E-01  0.19714383526E+00  0.24340844309E+00  0.51109989000E-03 0. -1.
     -623    1    1    2    0    0  0.58886846073E-01  0.11912464244E+00  0.95644418158E-01  0.17130007824E+03  0.17130000000E+03 0. -1.
      622    1    1    2    0    0  0.69310896343E-01 -0.56299042510E-01  0.37072117139E+01  0.37565133135E+01  0.60000000000E+00 0. -1.
</event>
<event>
 5   0  0.1014700E+04  0.9118800E+02  0.7818608E-02  0.1180000E+00
       11   -1    0    0    0    0  0.00000000000E+00  0.00000000000E+00  0.39999999673E+01  0.40000000000E+01  0.51109989000E-03 0.  1.
     -623   -1    0    0    0    0  0.00000000000E+00  0.00000000000E+00  0.12525980253E-10  0.17130000000E+03  0.17130000000E+03 0. -1.
       11    1    1    2    0    0 -0.12936525050E+00  0.58036023651E-01  0.48350539390E+00  0.50386632675E+00  0.51109989000E-03 0.  1.
     -623    1    1    2    0    0  0.62140239539E-01 -0.27798250272E-02  0.73358007134E-01  0.17130002700E+03  0.17130000000E+03 0. -1.
      622    1    1    2    0    0  0.67225010957E-01 -0.55256198624E-01  0.34431365663E+01  0.34961066723E+01  0.60000000000E+00 0.  1.
</event>
<event>
 5   0  0.1014700E+04  0.9118800E+02  0.7818608E-02  0.1180000E+00
       11   -1    0    0    0    0  0.00000000000E+00  0.00000000000E+00  0.39999999673E+01  0.40000000000E+01  0.51109989000E-03 0. -1.
     -623   -1    0    0    0    0  0.00000000000E+00  0.00000000000E+00  0.12525980253E-10  0.17130000000E+03  0.17130000000E+03 0. -1.
       11    1    1    2    0    0 -0.55940905329E-02  0.11743330524E-01  0.12390851891E-01  0.17972036456E-01  0.51109989000E-03 0. -1.
     -623    1    1    2    0    0  0.26225195734E-01  0.19624911725E-01  0.51233735149E-01  0.17130001079E+03  0.17130000000E+03 0. -1.
      622    1    1    2    0    0 -0.20631105201E-01 -0.31368242249E-01  0.39363753803E+01  0.39820171702E+01  0.60000000000E+00 0. -1.
</event>
<event>
 5   0  0.1014700E+04  0.9118800E+02  0.7818608E-02  0.1180000E+00
       11   -1    0    0    0    0  0.00000000000E+00  0.00000000000E+00  0.39999999673E+01  0.40000000000E+01  0.51109989000E-03 0. -1.
     -623   -1    0    0    0    0  0.00000000000E+00  0.00000000000E+00  0.12525980253E-10  0.17130000000E+03  0.17130000000E+03 0. -1.
       11    1    1    2    0    0 -0.18250607441E-02 -0.25537038067E-01  0.79283998239E-02  0.26806564622E-01  0.51109989000E-03 0. -1.
     -623    1    1    2    0    0  0.15820270683E-01 -0.30008781526E-01  0.64876569243E-01  0.17130001564E+03  0.17130000000E+03 0. -1.
      622    1    1    2    0    0 -0.13995209939E-01  0.55545819593E-01  0.39271949983E+01  0.39731777910E+01  0.60000000000E+00 0. -1.
</event>
<event>
 5   0  0.1014700E+04  0.9118800E+02  0.7818608E-02  0.1180000E+00
       11   -1    0    0    0    0  0.00000000000E+00  0.00000000000E+00  0.39999999673E+01  0.40000000000E+01  0.51109989000E-03 0. -1.
     -623   -1    0    0    0    0  0.00000000000E+00  0.00000000000E+00  0.12525980253E-10  0.17130000000E+03  0.17130000000E+03 0. -1.
       11    1    1    2    0    0 -0.73125772839E-01  0.77840614167E-01  0.13883911034E+00  0.17516592034E+00  0.51109989000E-03 0. -1.
     -623    1    1    2    0    0  0.13134203807E+00 -0.58007810804E-01  0.84263397419E-01  0.17130008090E+03  0.17130000000E+03 0. -1.
      622    1    1    2    0    0 -0.58216265231E-01 -0.19832803363E-01  0.37768974596E+01  0.38247531808E+01  0.60000000000E+00 0. -1.
</event>
<event>
 5   0  0.1014700E+04  0.9118800E+02  0.7818608E-02  0.1180000E+00
       11   -1    0    0    0    0  0.00000000000E+00  0.00000000000E+00  0.39999999673E+01  0.40000000000E+01  0.51109989000E-03 0. -1.
     -623   -1    0    0    0    0  0.00000000000E+00  0.00000000000E+00  0.12525980253E-10  0.17130000000E+03  0.17130000000E+03 0.  1.
       11    1    1    2    0    0  0.33314094222E-01 -0.13532234799E-01  0.30144225384E-01  0.46924255983E-01  0.51109989000E-03 0. -1.
     -623    1    1    2    0    0 -0.33326925138E-01  0.72421750088E-01  0.63053795702E-01  0.17130003016E+03  0.17130000000E+03 0.  1.
      622    1    1    2    0    0  0.12830915737E-04 -0.58889515289E-01  0.39068019463E+01  0.39530455882E+01  0.60000000000E+00 0. -1.
</event>
<event>
 5   0  0.1014700E+04  0.9118800E+02  0.7818608E-02  0.1180000E+00
       11   -1    0    0    0    0  0.00000000000E+00  0.00000000000E+00  0.39999999673E+01  0.40000000000E+01  0.51109989000E-03 0. -1.
     -623   -1    0    0    0    0  0.00000000000E+00  0.00000000000E+00  0.12525980253E-10  0.17130000000E+03  0.17130000000E+03 0.  1.
       11    1    1    2    0    0  0.22320470430E-01 -0.15150777674E-01  0.27105356441E-01  0.38245405414E-01  0.51109989000E-03 0. -1.
     -623    1    1    2    0    0 -0.18434378439E-04  0.39610901186E-01  0.56992112001E-01  0.17130001406E+03  0.17130000000E+03 0.  1.
      622    1    1    2    0    0 -0.22302036052E-01 -0.24460123511E-01  0.39159024989E+01  0.39617405341E+01  0.60000000000E+00 0. -1.
</event>
<event>
 5   0  0.1014700E+04  0.9118800E+02  0.7818608E-02  0.1180000E+00
       11   -1    0    0    0    0  0.00000000000E+00  0.00000000000E+00  0.39999999673E+01  0.40000000000E+01  0.51109989000E-03 0. -1.
     -623   -1    0    0    0    0  0.00000000000E+00  0.00000000000E+00  0.12525980253E-10  0.17130000000E+03  0.17130000000E+03 0. -1.
       11    1    1    2    0    0  0.46807227151E-01 -0.56469056823E-01  0.11984253745E+00  0.14050681797E+00  0.51109989000E-03 0. -1.
     -623    1    1    2    0    0 -0.40492552914E-01 -0.90766547687E-01  0.70480942162E-01  0.17130004333E+03  0.17130000000E+03 0. -1.
      622    1    1    2    0    0 -0.63146742371E-02  0.14723560451E+00  0.38096764878E+01  0.38594498494E+01  0.60000000000E+00 0. -1.
</event>
<event>
 5   0  0.1014700E+04  0.9118800E+02  0.7818608E-02  0.1180000E+00
       11   -1    0    0    0    0  0.00000000000E+00  0.00000000000E+00  0.39999999673E+01  0.40000000000E+01  0.51109989000E-03 0.  1.
     -623   -1    0    0    0    0  0.00000000000E+00  0.00000000000E+00  0.12525980253E-10  0.17130000000E+03  0.17130000000E+03 0.  1.
       11    1    1    2    0    0 -0.45384896807E-01 -0.24205030166E-01  0.97229528191E-01  0.10999779414E+00  0.51109989000E-03 0.  1.
     -623    1    1    2    0    0  0.11030384029E+00  0.47938528266E-01  0.59994203387E-01  0.17130005273E+03  0.17130000000E+03 0.  1.
      622    1    1    2    0    0 -0.64918943481E-01 -0.23733498099E-01  0.38427762358E+01  0.38899494786E+01  0.60000000000E+00 0.  1.
</event>
<event>
 5   0  0.1014700E+04  0.9118800E+02  0.7818608E-02  0.1180000E+00
       11   -1    0    0    0    0  0.00000000000E+00  0.00000000000E+00  0.39999999673E+01  0.40000000000E+01  0.51109989000E-03 0. -1.
     -623   -1    0    0    0    0  0.00000000000E+00  0.00000000000E+00  0.12525980253E-10  0.17130000000E+03  0.17130000000E+03 0.  1.
       11    1    1    2    0    0 -0.90230421760E-01  0.99044387242E-01  0.29648027591E+00  0.32534925063E+00  0.51109989000E-03 0. -1.
     -623    1    1    2    0    0  0.22721830772E+00  0.81897328834E-01  0.85489229747E-01  0.17130019160E+03  0.17130000000E+03 0.  1.
      622    1    1    2    0    0 -0.13698788596E+00 -0.18094171608E+00  0.36180304617E+01  0.36744591449E+01  0.60000000000E+00 0.  0.
</event>
<event>
 5   0  0.1014700E+04  0.9118800E+02  0.7818608E-02  0.1180000E+00
       11   -1    0    0    0    0  0.00000000000E+00  0.00000000000E+00  0.39999999673E+01  0.40000000000E+01  0.51109989000E-03 0. -1.
     -623   -1    0    0    0    0  0.00000000000E+00  0.00000000000E+00  0.12525980253E-10  0.17130000000E+03  0.17130000000E+03 0. -1.
       11    1    1    2    0    0  0.60652668726E-02  0.15842857986E+00  0.46159935048E+00  0.48806825749E+00  0.51109989000E-03 0. -1.
     -623    1    1    2    0    0 -0.40028745713E-01  0.23637846240E-01  0.83089195489E-01  0.17130002646E+03  0.17130000000E+03 0. -1.
      622    1    1    2    0    0  0.33963478841E-01 -0.18206642610E+00  0.34553114214E+01  0.35119052835E+01  0.60000000000E+00 0. -1.
</event>
<event>
 5   0  0.1014700E+04  0.9118800E+02  0.7818608E-02  0.1180000E+00
       11   -1    0    0    0    0  0.00000000000E+00  0.00000000000E+00  0.39999999673E+01  0.40000000000E+01  0.51109989000E-03 0. -1.
     -623   -1    0    0    0    0  0.00000000000E+00  0.00000000000E+00  0.12525980253E-10  0.17130000000E+03  0.17130000000E+03 0. -1.
       11    1    1    2    0    0  0.26564476863E-01 -0.42966200479E-01  0.23031993658E+00  0.23579503859E+00  0.51109989000E-03 0. -1.
     -623    1    1    2    0    0 -0.54377793379E-02  0.73494720463E-01  0.53811667987E-01  0.17130002430E+03  0.17130000000E+03 0. -1.
      622    1    1    2    0    0 -0.21126697525E-01 -0.30528519983E-01  0.37158683628E+01  0.37641806569E+01  0.60000000000E+00 0. -1.
</event>
<event>
 5   0  0.1014700E+04  0.9118800E+02  0.7818608E-02  0.1180000E+00
       11   -1    0    0    0    0  0.00000000000E+00  0.00000000000E+00  0.39999999673E+01  0.40000000000E+01  0.51109989000E-03 0. -1.
     -623   -1    0    0    0    0  0.00000000000E+00  0.00000000000E+00  0.12525980253E-10  0.17130000000E+03  0.17130000000E+03 0. -1.
       11    1    1    2    0    0 -0.15377088149E-01  0.15664438375E-01  0.16093358685E+00  0.16242447497E+00  0.51109989000E-03 0. -1.
     -623    1    1    2    0    0  0.34289557584E-01  0.25718046105E-01  0.48971284709E-01  0.17130001236E+03  0.17130000000E+03 0. -1.
      622    1    1    2    0    0 -0.18912469435E-01 -0.41382484480E-01  0.37900950958E+01  0.38375631626E+01  0.60000000000E+00 0. -1.
</event>
<event>
 5   0  0.1014700E+04  0.9118800E+02  0.7818608E-02  0.1180000E+00
       11   -1    0    0    0    0  0.00000000000E+00  0.00000000000E+00  0.39999999673E+01  0.40000000000E+01  0.51109989000E-03 0. -1.
     -623   -1    0    0    0    0  0.00000000000E+00  0.00000000000E+00  0.12525980253E-10  0.17130000000E+03  0.17130000000E+03 0. -1.
       11    1    1    2    0    0  0.12555241620E-01  0.61036015727E-01  0.74081515525E-01  0.96805792561E-01  0.51109989000E-03 0. -1.
     -623    1    1    2    0    0 -0.10423338622E-01 -0.67675190568E-01  0.69150295781E-01  0.17130002764E+03  0.17130000000E+03 0. -1.
      622    1    1    2    0    0 -0.21319029984E-02  0.66391748415E-02  0.38567681561E+01  0.39031665649E+01  0.60000000000E+00 0. -1.
</event>
<event>
 5   0  0.1014700E+04  0.9118800E+02  0.7818608E-02  0.1180000E+00
       11   -1    0    0    0    0  0.00000000000E+00  0.00000000000E+00  0.39999999673E+01  0.40000000000E+01  0.51109989000E-03 0.  1.
     -623   -1    0    0    0    0  0.00000000000E+00  0.00000000000E+00  0.12525980253E-10  0.17130000000E+03  0.17130000000E+03 0. -1.
       11    1    1    2    0    0  0.26438914442E+00  0.81559096793E-03  0.99209699317E+00  0.10267224503E+01  0.51109989000E-03 0.  1.
     -623    1    1    2    0    0 -0.13830362735E-01  0.40897063540E-01  0.10693263348E+00  0.17130003882E+03  0.17130000000E+03 0. -1.
      622    1    1    2    0    0 -0.25055878169E+00 -0.41712654508E-01  0.29009703407E+01  0.29732387335E+01  0.60000000000E+00 0.  1.
</event>
<event>
 5   0  0.1014700E+04  0.9118800E+02  0.7818608E-02  0.1180000E+00
       11   -1    0    0    0    0  0.00000000000E+00  0.00000000000E+00  0.39999999673E+01  0.40000000000E+01  0.51109989000E-03 0.  1.
     -623   -1    0    0    0    0  0.00000000000E+00  0.00000000000E+00  0.12525980253E-10  0.17130000000E+03  0.17130000000E+03 0. -1.
       11    1    1    2    0    0  0.26525401530E-01  0.48994848081E-01  0.23079961857E-01  0.60307859581E-01  0.51109989000E-03 0.  1.
     -623    1    1    2    0    0 -0.39073344597E-01 -0.10653716785E+00  0.83688910042E-01  0.17130005803E+03  0.17130000000E+03 0. -1.
      622    1    1    2    0    0  0.12547943067E-01  0.57542319765E-01  0.38932310955E+01  0.39396341115E+01  0.60000000000E+00 0.  1.
</event>
<event>
 5   0  0.1014700E+04  0.9118800E+02  0.7818608E-02  0.1180000E+00
       11   -1    0    0    0    0  0.00000000000E+00  0.00000000000E+00  0.39999999673E+01  0.40000000000E+01  0.51109989000E-03 0. -1.
     -623   -1    0    0    0    0  0.00000000000E+00  0.00000000000E+00  0.12525980253E-10  0.17130000000E+03  0.17130000000E+03 0.  1.
       11    1    1    2    0    0 -0.17188986860E-01  0.51799784276E-02  0.64852324436E-01  0.67293228874E-01  0.51109989000E-03 0. -1.
     -623    1    1    2    0    0  0.50066819778E-01  0.10294973053E-01  0.48664943981E-01  0.17130001454E+03  0.17130000000E+03 0.  1.
      622    1    1    2    0    0 -0.32877832918E-01 -0.15474951481E-01  0.38864826989E+01  0.39326922325E+01  0.60000000000E+00 0. -1.
</event>
<event>
 5   0  0.1014700E+04  0.9118800E+02  0.7818608E-02  0.1180000E+00
       11   -1    0    0    0    0  0.00000000000E+00  0.00000000000E+00  0.39999999673E+01  0.40000000000E+01  0.51109989000E-03 0. -1.
     -623   -1    0    0    0    0  0.00000000000E+00  0.00000000000E+00  0.12525980253E-10  0.17130000000E+03  0.17130000000E+03 0.  1.
       11    1    1    2    0    0  0.27258351012E-01  0.58322403452E-02 -0.57828906411E-02  0.28473422250E-01  0.51109989000E-03 0. -1.
     -623    1    1    2    0    0 -0.11505279330E-01 -0.16884218773E-01  0.79907753686E-01  0.17130001986E+03  0.17130000000E+03 0.  1.
      622    1    1    2    0    0 -0.15753071682E-01  0.11051978428E-01  0.39258751043E+01  0.39715067217E+01  0.60000000000E+00 0. -1.
</event>
<event>
 5   0  0.1014700E+04  0.9118800E+02  0.7818608E-02  0.1180000E+00
       11   -1    0    0    0    0  0.00000000000E+00  0.00000000000E+00  0.39999999673E+01  0.40000000000E+01  0.51109989000E-03 0.  1.
     -623   -1    0    0    0    0  0.00000000000E+00  0.00000000000E+00  0.12525980253E-10  0.17130000000E+03  0.17130000000E+03 0.  1.
       11    1    1    2    0    0 -0.59756027164E-02  0.74766185778E-01  0.80853505157E-02  0.75440867437E-01  0.51109989000E-03 0.  1.
     -623    1    1    2    0    0  0.10589069281E+00  0.72048993594E-01  0.11764904257E+00  0.17130008828E+03  0.17130000000E+03 0.  1.
      622    1    1    2    0    0 -0.99915090097E-01 -0.14681517937E+00  0.38742655743E+01  0.39244708512E+01  0.60000000000E+00 0.  1.
</event>
<event>
 5   0  0.1014700E+04  0.9118800E+02  0.7818608E-02  0.1180000E+00
       11   -1    0    0    0    0  0.00000000000E+00  0.00000000000E+00  0.39999999673E+01  0.40000000000E+01  0.51109989000E-03 0.  1.
     -623   -1    0    0    0    0  0.00000000000E+00  0.00000000000E+00  0.12525980253E-10  0.17130000000E+03  0.17130000000E+03 0. -1.
       11    1    1    2    0    0 -0.11097581592E+00 -0.45719657496E-01  0.25218645008E+00  0.27929229425E+00  0.51109989000E-03 0.  1.
     -623    1    1    2    0    0 -0.46750164002E-01 -0.13800575432E+00  0.83878561444E-01  0.17130008251E+03  0.17130000000E+03 0. -1.
      622    1    1    2    0    0  0.15772597993E+00  0.18372541182E+00  0.36639349558E+01  0.37206251991E+01  0.60000000000E+00 0.  1.
</event>
<event>
 5   0  0.1014700E+04  0.9118800E+02  0.7818608E-02  0.1180000E+00
       11   -1    0    0    0    0  0.00000000000E+00  0.00000000000E+00  0.39999999673E+01  0.40000000000E+01  0.51109989000E-03 0.  1.
     -623   -1    0    0    0    0  0.00000000000E+00  0.00000000000E+00  0.12525980253E-10  0.17130000000E+03  0.17130000000E+03 0.  1.
       11    1    1    2    0    0  0.37464835986E-01 -0.38533965854E-01  0.15147697652E+00  0.16072963665E+00  0.51109989000E-03 0.  1.
     -623    1    1    2    0    0  0.28834523565E-02  0.83002527725E-01  0.56931735631E-01  0.17130002959E+03  0.17130000000E+03 0.  1.
      622    1    1    2    0    0 -0.40348288342E-01 -0.44468561871E-01  0.37915912552E+01  0.38392407692E+01  0.60000000000E+00 0.  1.
</event>
<event>
 5   0  0.1014700E+04  0.9118800E+02  0.7818608E-02  0.1180000E+00
       11   -1    0    0    0    0  0.00000000000E+00  0.00000000000E+00  0.39999999673E+01  0.40000000000E+01  0.51109989000E-03 0.  1.
     -623   -1    0    0    0    0  0.00000000000E+00  0.00000000000E+00  0.12525980253E-10  0.17130000000E+03  0.17130000000E+03 0.  1.
       11    1    1    2    0    0  0.22305900308E-01 -0.18460030695E-01  0.62448013202E-01  0.68835612133E-01  0.51109989000E-03 0.  1.
     -623    1    1    2    0    0 -0.17684588556E-01  0.52788746194E-01  0.52617081627E-01  0.17130001713E+03  0.17130000000E+03 0.  1.
      622    1    1    2    0    0 -0.46213117517E-02 -0.34328715500E-01  0.38849348725E+01  0.39311472602E+01  0.60000000000E+00 0.  1.
</event>
<event>
 5   0  0.1014700E+04  0.9118800E+02  0.7818608E-02  0.1180000E+00
       11   -1    0    0    0    0  0.00000000000E+00  0.00000000000E+00  0.39999999673E+01  0.40000000000E+01  0.51109989000E-03 0. -1.
     -623   -1    0    0    0    0  0.00000000000E+00  0.00000000000E+00  0.12525980253E-10  0.17130000000E+03  0.17130000000E+03 0. -1.
       11    1    1    2    0    0  0.70812693730E-01  0.72736561846E-02  0.68923870305E+00  0.69290518447E+00  0.51109989000E-03 0. -1.
     -623    1    1    2    0    0 -0.54374288228E-01 -0.94685525702E-01  0.59812812876E-01  0.17130004524E+03  0.17130000000E+03 0. -1.
      622    1    1    2    0    0 -0.16438405502E-01  0.87411869518E-01  0.32509484514E+01  0.33070495748E+01  0.60000000000E+00 0. -1.
</event>
<event>
 5   0  0.1014700E+04  0.9118800E+02  0.7818608E-02  0.1180000E+00
       11   -1    0    0    0    0  0.00000000000E+00  0.00000000000E+00  0.39999999673E+01  0.40000000000E+01  0.51109989000E-03 0.  1.
     -623   -1    0    0    0    0  0.00000000000E+00  0.00000000000E+00  0.12525980253E-10  0.17130000000E+03  0.17130000000E+03 0.  1.
       11    1    1    2    0    0 -0.80304523031E-02  0.12862299686E-01  0.70905406054E-02  0.16747056618E-01  0.51109989000E-03 0.  1.
     -623    1    1    2    0    0 -0.22810744507E-02 -0.11904611944E-01  0.55127985185E-01  0.17130000930E+03  0.17130000000E+03 0.  1.
      622    1    1    2    0    0  0.10311526754E-01 -0.95768774203E-03  0.39377814416E+01  0.39832436439E+01  0.60000000000E+00 0.  1.
</event>
<event>
 5   0  0.1014700E+04  0.9118800E+02  0.7818608E-02  0.1180000E+00
       11   -1    0    0    0    0  0.00000000000E+00  0.00000000000E+00  0.39999999673E+01  0.40000000000E+01  0.51109989000E-03 0.  1.
     -623   -1    0    0    0    0  0.00000000000E+00  0.00000000000E+00  0.12525980253E-10  0.17130000000E+03  0.17130000000E+03 0.  1.
       11    1    1    2    0    0 -0.78545917035E-01 -0.10896183735E+00  0.16117670535E+00  0.20981023486E+00  0.51109989000E-03 0.  1.
     -623    1    1    2    0    0  0.10496145733E+00 -0.11069876244E-01  0.98506177136E-01  0.17130006084E+03  0.17130000000E+03 0.  1.
      622    1    1    2    0    0 -0.26415540296E-01  0.12003171360E+00  0.37403170849E+01  0.37901289277E+01  0.60000000000E+00 0.  1.
</event>
<event>
 5   0  0.1014700E+04  0.9118800E+02  0.7818608E-02  0.1180000E+00
       11   -1    0    0    0    0  0.00000000000E+00  0.00000000000E+00  0.39999999673E+01  0.40000000000E+01  0.51109989000E-03 0. -1.
     -623   -1    0    0    0    0  0.00000000000E+00  0.00000000000E+00  0.12525980253E-10  0.17130000000E+03  0.17130000000E+03 0. -1.
       11    1    1    2    0    0  0.31250233293E-01 -0.31580968665E-01  0.97231234587E-01  0.10690233329E+00  0.51109989000E-03 0. -1.
     -623    1    1    2    0    0 -0.59455583516E-01  0.46682743440E-01  0.56343922365E-01  0.17130002595E+03  0.17130000000E+03 0. -1.
      622    1    1    2    0    0  0.28205350222E-01 -0.15101774775E-01  0.38464248104E+01  0.38930717213E+01  0.60000000000E+00 0. -1.
</event>
<event>
 5   0  0.1014700E+04  0.9118800E+02  0.7818608E-02  0.1180000E+00
       11   -1    0    0    0    0  0.00000000000E+00  0.00000000000E+00  0.39999999673E+01  0.40000000000E+01  0.51109989000E-03 0. -1.
     -623   -1    0    0    0    0  0.00000000000E+00  0.00000000000E+00  0.12525980253E-10  0.17130000000E+03  0.17130000000E+03 0.  1.
       11    1    1    2    0    0 -0.44518718407E-01 -0.19254359729E+00  0.59706076535E+00  0.62891714231E+00  0.51109989000E-03 0. -1.
     -623    1    1    2    0    0  0.96315680794E-01  0.45225742511E-01  0.89416302300E-01  0.17130005638E+03  0.17130000000E+03 0.  1.
      622    1    1    2    0    0 -0.51796962387E-01  0.14731785478E+00  0.33135228997E+01  0.33710264731E+01  0.60000000000E+00 0. -1.
</event>
<event>
 5   0  0.1014700E+04  0.9118800E+02  0.7818608E-02  0.1180000E+00
       11   -1    0    0    0    0  0.00000000000E+00  0.00000000000E+00  0.39999999673E+01  0.40000000000E+01  0.51109989000E-03 0. -1.
     -623   -1    0    0    0    0  0.00000000000E+00  0.00000000000E+00  0.12525980253E-10  0.17130000000E+03  0.17130000000E+03 0. -1.
       11    1    1    2    0    0  0.44194927179E-01  0.89899603338E-01  0.41818870416E+00  0.43001998067E+00  0.51109989000E-03 0. -1.
     -623    1    1    2    0    0 -0.86803476735E-02  0.46589432855E-01  0.65459362424E-01  0.17130001906E+03  0.17130000000E+03 0. -1.
      622    1    1    2    0    0 -0.35514579505E-01 -0.13648903619E+00  0.35163519008E+01  0.35699609567E+01  0.60000000000E+00 0. -1.
</event>
<event>
 5   0  0.1014700E+04  0.9118800E+02  0.7818608E-02  0.1180000E+00
       11   -1    0    0    0    0  0.00000000000E+00  0.00000000000E+00  0.39999999673E+01  0.40000000000E+01  0.51109989000E-03 0.  1.
     -623   -1    0    0    0    0  0.00000000000E+00  0.00000000000E+00  0.12525980253E-10  0.17130000000E+03  0.17130000000E+03 0. -1.
       11    1    1    2    0    0  0.10207796014E+00  0.30194852985E-02  0.20780444125E+00  0.23154259709E+00  0.51109989000E-03 0.  1.
     -623    1    1    2    0    0  0.77469280033E-01  0.41857724395E-01  0.76455915254E-01  0.17130003969E+03  0.17130000000E+03 0. -1.
      622    1    1    2    0    0 -0.17954724018E+00 -0.44877209694E-01  0.37157396109E+01  0.37684177092E+01  0.60000000000E+00 0.  0.
</event>
<event>
 5   0  0.1014700E+04  0.9118800E+02  0.7818608E-02  0.1180000E+00
       11   -1    0    0    0    0  0.00000000000E+00  0.00000000000E+00  0.39999999673E+01  0.40000000000E+01  0.51109989000E-03 0. -1.
     -623   -1    0    0    0    0  0.00000000000E+00  0.00000000000E+00  0.12525980253E-10  0.17130000000E+03  0.17130000000E+03 0.  1.
       11    1    1    2    0    0 -0.16976733684E-01 -0.14405229918E-01  0.45123598049E+00  0.45178522712E+00  0.51109989000E-03 0. -1.
     -623    1    1    2    0    0 -0.25528504845E-01  0.72739203938E-02  0.51922542617E-01  0.17130000993E+03  0.17130000000E+03 0.  1.
      622    1    1    2    0    0  0.42505238529E-01  0.71313095245E-02  0.34968414442E+01  0.35482048471E+01  0.60000000000E+00 0. -1.
</event>
<event>
 5   0  0.1014700E+04  0.9118800E+02  0.7818608E-02  0.1180000E+00
       11   -1    0    0    0    0  0.00000000000E+00  0.00000000000E+00  0.39999999673E+01  0.40000000000E+01  0.51109989000E-03 0. -1.
     -623   -1    0    0    0    0  0.00000000000E+00  0.00000000000E+00  0.12525980253E-10  0.17130000000E+03  0.17130000000E+03 0. -1.
       11    1    1    2    0    0  0.11021941300E+00  0.13069243930E+00  0.67953740900E+00  0.70071405305E+00  0.51109989000E-03 0. -1.
     -623    1    1    2    0    0 -0.80468937819E-01 -0.40676298357E-01  0.77620110489E-01  0.17130004132E+03  0.17130000000E+03 0. -1.
      622    1    1    2    0    0 -0.29750475184E-01 -0.90016140941E-01  0.32428424479E+01  0.32992446314E+01  0.60000000000E+00 0. -1.
</event>
<event>
 5   0  0.1014700E+04  0.9118800E+02  0.7818608E-02  0.1180000E+00
       11   -1    0    0    0    0  0.00000000000E+00  0.00000000000E+00  0.39999999673E+01  0.40000000000E+01  0.51109989000E-03 0. -1.
     -623   -1    0    0    0    0  0.00000000000E+00  0.00000000000E+00  0.12525980253E-10  0.17130000000E+03  0.17130000000E+03 0.  1.
       11    1    1    2    0    0 -0.82969654922E-01 -0.28116641620E-01  0.41273689790E+00  0.42193188702E+00  0.51109989000E-03 0. -1.
     -623    1    1    2    0    0  0.66505742685E-01  0.79397478979E-01  0.60313879087E-01  0.17130004193E+03  0.17130000000E+03 0.  1.
      622    1    1    2    0    0  0.16463912236E-01 -0.51280837359E-01  0.35269491904E+01  0.35780261844E+01  0.60000000000E+00 0. -1.
</event>
<event>
 5   0  0.1014700E+04  0.9118800E+02  0.7818608E-02  0.1180000E+00
       11   -1    0    0    0    0  0.00000000000E+00  0.00000000000E+00  0.39999999673E+01  0.40000000000E+01  0.51109989000E-03 0. -1.
     -623   -1    0    0    0    0  0.00000000000E+00  0.00000000000E+00  0.12525980253E-10  0.17130000000E+03  0.17130000000E+03 0. -1.
       11    1    1    2    0    0  0.53622995894E-01 -0.12762757948E+00  0.60498209372E+00  0.62061890052E+00  0.51109989000E-03 0. -1.
     -623    1    1    2    0    0  0.71848025666E-02  0.72181984926E-01  0.70376043144E-01  0.17130002982E+03  0.17130000000E+03 0. -1.
      622    1    1    2    0    0 -0.60807798461E-01  0.55445594556E-01  0.33246418305E+01  0.33793512844E+01  0.60000000000E+00 0. -1.
</event>
<event>
 5   0  0.1014700E+04  0.9118800E+02  0.7818608E-02  0.1180000E+00
       11   -1    0    0    0    0  0.00000000000E+00  0.00000000000E+00  0.39999999673E+01  0.40000000000E+01  0.51109989000E-03 0.  1.
     -623   -1    0    0    0    0  0.00000000000E+00  0.00000000000E+00  0.12525980253E-10  0.17130000000E+03  0.17130000000E+03 0. -1.
       11    1    1    2    0    0 -0.55955230841E-01  0.19443439282E-01  0.86984208488E-01  0.10524043395E+00  0.51109989000E-03 0.  1.
     -623    1    1    2    0    0  0.51181894985E-01 -0.44371772242E-01  0.64859330120E-01  0.17130002567E+03  0.17130000000E+03 0. -1.
      622    1    1    2    0    0  0.47733358566E-02  0.24928332960E-01  0.38481564287E+01  0.38947338942E+01  0.60000000000E+00 0.  1.
</event>
<event>
 5   0  0.1014700E+04  0.9118800E+02  0.7818608E-02  0.1180000E+00
       11   -1    0    0    0    0  0.00000000000E+00  0.00000000000E+00  0.39999999673E+01  0.40000000000E+01  0.51109989000E-03 0.  1.
     -623   -1    0    0    0    0  0.00000000000E+00  0.00000000000E+00  0.12525980253E-10  0.17130000000E+03  0.17130000000E+03 0. -1.
       11    1    1    2    0    0  0.33933019515E-03 -0.38023721597E-01  0.14422562412E+00  0.14915498792E+00  0.51109989000E-03 0.  1.
     -623    1    1    2    0    0 -0.22169347320E-01  0.10285650187E-01  0.52133083572E-01  0.17130000968E+03  0.17130000000E+03 0. -1.
      622    1    1    2    0    0  0.21830017125E-01  0.27738071410E-01  0.38036412597E+01  0.38508353357E+01  0.60000000000E+00 0.  1.
</event>
<event>
 5   0  0.1014700E+04  0.9118800E+02  0.7818608E-02  0.1180000E+00
       11   -1    0    0    0    0  0.00000000000E+00  0.00000000000E+00  0.39999999673E+01  0.40000000000E+01  0.51109989000E-03 0. -1.
     -623   -1    0    0    0    0  0.00000000000E+00  0.00000000000E+00  0.12525980253E-10  0.17130000000E+03  0.17130000000E+03 0. -1.
       11    1    1    2    0    0  0.82207801844E-02 -0.18478352007E+00  0.12922727554E+00  0.22563794115E+00  0.51109989000E-03 0. -1.
     -623    1    1    2    0    0  0.16265982972E+00  0.10462187748E+00  0.14936607739E+00  0.17130017430E+03  0.17130000000E+03 0. -1.
      622    1    1    2    0    0 -0.17088060991E+00  0.80161642597E-01  0.37214066144E+01  0.37741877619E+01  0.60000000000E+00 0. -1.
</event>
<event>
 5   0  0.1014700E+04  0.9118800E+02  0.7818608E-02  0.1180000E+00
       11   -1    0    0    0    0  0.00000000000E+00  0.00000000000E+00  0.39999999673E+01  0.40000000000E+01  0.51109989000E-03 0. -1.
     -623   -1    0    0    0    0  0.00000000000E+00  0.00000000000E+00  0.12525980253E-10  0.17130000000E+03  0.17130000000E+03 0. -1.
       11    1    1    2    0    0 -0.94442720071E-01  0.74932108344E-01  0.11296294283E+01  0.11360445215E+01  0.51109989000E-03 0. -1.
     -623    1    1    2    0    0 -0.26992045353E-01 -0.45872759961E-01  0.72779751541E-01  0.17130002373E+03  0.17130000000E+03 0. -1.
      622    1    1    2    0    0  0.12143476542E+00 -0.29059348383E-01  0.27975907875E+01  0.28639317489E+01  0.60000000000E+00 0. -1.
</event>
<event>
 5   0  0.1014700E+04  0.9118800E+02  0.7818608E-02  0.1180000E+00
       11   -1    0    0    0    0  0.00000000000E+00  0.00000000000E+00  0.39999999673E+01  0.40000000000E+01  0.51109989000E-03 0. -1.
     -623   -1    0    0    0    0  0.00000000000E+00  0.00000000000E+00  0.12525980253E-10  0.17130000000E+03  0.17130000000E+03 0.  1.
       11    1    1    2    0    0 -0.50986966472E-02  0.49804345863E-02  0.32353825197E-01  0.33133557930E-01  0.51109989000E-03 0. -1.
     -623    1    1    2    0    0  0.25488995107E-01 -0.41021541942E-01  0.46650065373E-01  0.17130001316E+03  0.17130000000E+03 0.  1.
      622    1    1    2    0    0 -0.20390298459E-01  0.36041107356E-01  0.39209960768E+01  0.39668532819E+01  0.60000000000E+00 0. -1.
</event>
<event>
 5   0  0.1014700E+04  0.9118800E+02  0.7818608E-02  0.1180000E+00
       11   -1    0    0    0    0  0.00000000000E+00  0.00000000000E+00  0.39999999673E+01  0.40000000000E+01  0.51109989000E-03 0.  1.
     -623   -1    0    0    0    0  0.00000000000E+00  0.00000000000E+00  0.12525980253E-10  0.17130000000E+03  0.17130000000E+03 0. -1.
       11    1    1    2    0    0  0.36040649203E-02 -0.20380907514E+00  0.10218399036E+01  0.10419732138E+01  0.51109989000E-03 0.  1.
     -623    1    1    2    0    0  0.11047769342E+00 -0.37227628614E-01  0.93992613580E-01  0.17130006546E+03  0.17130000000E+03 0. -1.
      622    1    1    2    0    0 -0.11408175834E+00  0.24103670376E+00  0.28841674501E+01  0.29579613284E+01  0.60000000000E+00 0.  1.
</event>
<event>
 5   0  0.1014700E+04  0.9118800E+02  0.7818608E-02  0.1180000E+00
       11   -1    0    0    0    0  0.00000000000E+00  0.00000000000E+00  0.39999999673E+01  0.40000000000E+01  0.51109989000E-03 0. -1.
     -623   -1    0    0    0    0  0.00000000000E+00  0.00000000000E+00  0.12525980253E-10  0.17130000000E+03  0.17130000000E+03 0. -1.
       11    1    1    2    0    0 -0.25743023158E-01 -0.37545272947E-01  0.82578396366E+00  0.82703794751E+00  0.51109989000E-03 0. -1.
     -623    1    1    2    0    0 -0.53934640795E-01  0.38399932908E-01  0.59542334947E-01  0.17130002314E+03  0.17130000000E+03 0. -1.
      622    1    1    2    0    0  0.79677663953E-01 -0.85465996057E-03  0.31146736688E+01  0.31729389095E+01  0.60000000000E+00 0. -1.
</event>
<event>
 5   0  0.1014700E+04  0.9118800E+02  0.7818608E-02  0.1180000E+00
       11   -1    0    0    0    0  0.00000000000E+00  0.00000000000E+00  0.39999999673E+01  0.40000000000E+01  0.51109989000E-03 0.  1.
     -623   -1    0    0    0    0  0.00000000000E+00  0.00000000000E+00  0.12525980253E-10  0.17130000000E+03  0.17130000000E+03 0.  1.
       11    1    1    2    0    0 -0.29342025326E-02  0.24632395001E-01  0.28466914179E+00  0.28574839621E+00  0.51109989000E-03 0.  1.
     -623    1    1    2    0    0  0.43898504229E-01  0.38528507541E-01  0.50652394771E-01  0.17130001745E+03  0.17130000000E+03 0.  1.
      622    1    1    2    0    0 -0.40964301696E-01 -0.63160902542E-01  0.36646784308E+01  0.37142341572E+01  0.60000000000E+00 0.  1.
</event>
<event>
 5   0  0.1014700E+04  0.9118800E+02  0.7818608E-02  0.1180000E+00
       11   -1    0    0    0    0  0.00000000000E+00  0.00000000000E+00  0.39999999673E+01  0.40000000000E+01  0.51109989000E-03 0. -1.
     -623   -1    0    0    0    0  0.00000000000E+00  0.00000000000E+00  0.12525980253E-10  0.17130000000E+03  0.17130000000E+03 0.  1.
       11    1    1    2    0    0  0.32560489309E-01 -0.13259295018E-01  0.11085443619E+00  0.11629686846E+00  0.51109989000E-03 0. -1.
     -623    1    1    2    0    0  0.88736833578E-02  0.17264894133E-01  0.52304824338E-01  0.17130000909E+03  0.17130000000E+03 0.  1.
      622    1    1    2    0    0 -0.41434172666E-01 -0.40055991143E-02  0.38368407068E+01  0.38836940463E+01  0.60000000000E+00 0. -1.
</event>
<event>
 5   0  0.1014700E+04  0.9118800E+02  0.7818608E-02  0.1180000E+00
       11   -1    0    0    0    0  0.00000000000E+00  0.00000000000E+00  0.39999999673E+01  0.40000000000E+01  0.51109989000E-03 0. -1.
     -623   -1    0    0    0    0  0.00000000000E+00  0.00000000000E+00  0.12525980253E-10  0.17130000000E+03  0.17130000000E+03 0. -1.
       11    1    1    2    0    0  0.19837147257E-01 -0.25687455092E-01  0.39792939191E+00  0.39925107380E+00  0.51109989000E-03 0. -1.
     -623    1    1    2    0    0  0.85859257158E-01 -0.38056333690E-02  0.53389682448E-01  0.17130002988E+03  0.17130000000E+03 0. -1.
      622    1    1    2    0    0 -0.10569640442E+00  0.29493088461E-01  0.35486808930E+01  0.36007190466E+01  0.60000000000E+00 0. -1.
</event>
<event>
 5   0  0.1014700E+04  0.9118800E+02  0.7818608E-02  0.1180000E+00
       11   -1    0    0    0    0  0.00000000000E+00  0.00000000000E+00  0.39999999673E+01  0.40000000000E+01  0.51109989000E-03 0. -1.
     -623   -1    0    0    0    0  0.00000000000E+00  0.00000000000E+00  0.12525980253E-10  0.17130000000E+03  0.17130000000E+03 0. -1.
       11    1    1    2    0    0 -0.53994853255E-01 -0.87144434359E-01  0.38299567693E+00  0.39647893562E+00  0.51109989000E-03 0. -1.
     -623    1    1    2    0    0  0.71372389981E-02  0.18033972120E-01  0.64780201475E-01  0.17130001335E+03  0.17130000000E+03 0. -1.
      622    1    1    2    0    0  0.46857614257E-01  0.69110462239E-01  0.35522240890E+01  0.36035077175E+01  0.60000000000E+00 0. -1.
</event>
<event>
 5   0  0.1014700E+04  0.9118800E+02  0.7818608E-02  0.1180000E+00
       11   -1    0    0    0    0  0.00000000000E+00  0.00000000000E+00  0.39999999673E+01  0.40000000000E+01  0.51109989000E-03 0. -1.
     -623   -1    0    0    0    0  0.00000000000E+00  0.00000000000E+00  0.12525980253E-10  0.17130000000E+03  0.17130000000E+03 0. -1.
       11    1    1    2    0    0  0.27382252668E-01 -0.67147827687E-02  0.90987307230E-02  0.29629785566E-01  0.51109989000E-03 0. -1.
     -623    1    1    2    0    0 -0.37460040612E-01  0.25144668067E-01  0.66203840489E-01  0.17130001873E+03  0.17130000000E+03 0. -1.
      622    1    1    2    0    0  0.10077787944E-01 -0.18429885299E-01  0.39246973961E+01  0.39703514799E+01  0.60000000000E+00 0. -1.
</event>
<event>
 5   0  0.1014700E+04  0.9118800E+02  0.7818608E-02  0.1180000E+00
       11   -1    0    0    0    0  0.00000000000E+00  0.00000000000E+00  0.39999999673E+01  0.40000000000E+01  0.51109989000E-03 0.  1.
     -623   -1    0    0    0    0  0.00000000000E+00  0.00000000000E+00  0.12525980253E-10  0.17130000000E+03  0.17130000000E+03 0. -1.
       11    1    1    2    0    0 -0.75273177894E-01 -0.63331317487E-01  0.61340953404E+00  0.62124747465E+00  0.51109989000E-03 0.  1.
     -623    1    1    2    0    0  0.13318223574E+00 -0.14433435259E+00  0.68663912124E-01  0.17130012634E+03  0.17130000000E+03 0. -1.
      622    1    1    2    0    0 -0.57909057851E-01  0.20766567007E+00  0.33179265212E+01  0.33786261838E+01  0.60000000000E+00 0.  1.
</event>
<event>
 5   0  0.1014700E+04  0.9118800E+02  0.7818608E-02  0.1180000E+00
       11   -1    0    0    0    0  0.00000000000E+00  0.00000000000E+00  0.39999999673E+01  0.40000000000E+01  0.51109989000E-03 0.  1.
     -623   -1    0    0    0    0  0.00000000000E+00  0.00000000000E+00  0.12525980253E-10  0.17130000000E+03  0.17130000000E+03 0. -1.
       11    1    1    2    0    0 -0.11059271378E-01  0.14371345805E-01  0.13428127656E-03  0.18141728645E-01  0.51109989000E-03 0.  1.
     -623    1    1    2    0    0 -0.11779055992E+00 -0.21372006348E-01  0.65642673296E-01  0.17130005441E+03  0.17130000000E+03 0. -1.
      622    1    1    2    0    0  0.12884983129E+00  0.70006605426E-02  0.39342230128E+01  0.39818038629E+01  0.60000000000E+00 0.  1.
</event>
<event>
 5   0  0.1014700E+04  0.9118800E+02  0.7818608E-02  0.1180000E+00
       11   -1    0    0    0    0  0.00000000000E+00  0.00000000000E+00  0.39999999673E+01  0.40000000000E+01  0.51109989000E-03 0. -1.
     -623   -1    0    0    0    0  0.00000000000E+00  0.00000000000E+00  0.12525980253E-10  0.17130000000E+03  0.17130000000E+03 0. -1.
       11    1    1    2    0    0 -0.15139761306E-01  0.23903966900E-01  0.26851453751E-02  0.28426804863E-01  0.51109989000E-03 0. -1.
     -623    1    1    2    0    0  0.24714338357E-01 -0.31795845025E-01  0.71364744514E-01  0.17130001960E+03  0.17130000000E+03 0. -1.
      622    1    1    2    0    0 -0.95745770510E-02  0.78918781249E-02  0.39259500775E+01  0.39715535959E+01  0.60000000000E+00 0. -1.
</event>
<event>
 5   0  0.1014700E+04  0.9118800E+02  0.7818608E-02  0.1180000E+00
       11   -1    0    0    0    0  0.00000000000E+00  0.00000000000E+00  0.39999999673E+01  0.40000000000E+01  0.51109989000E-03 0. -1.
     -623   -1    0    0    0    0  0.00000000000E+00  0.00000000000E+00  0.12525980253E-10  0.17130000000E+03  0.17130000000E+03 0. -1.
       11    1    1    2    0    0 -0.73970272150E-01  0.84208495360E-01  0.17979898170E+00  0.21187403544E+00  0.51109989000E-03 0. -1.
     -623    1    1    2    0    0 -0.60946628059E-01 -0.45824265058E-02  0.83207577755E-01  0.17130003111E+03  0.17130000000E+03 0. -1.
      622    1    1    2    0    0  0.13491690021E+00 -0.79626068854E-01  0.37369934079E+01  0.37880948525E+01  0.60000000000E+00 0.  0.
</event>
<event>
 5   0  0.1014700E+04  0.9118800E+02  0.7818608E-02  0.1180000E+00
       11   -1    0    0    0    0  0.00000000000E+00  0.00000000000E+00  0.39999999673E+01  0.40000000000E+01  0.51109989000E-03 0. -1.
     -623   -1    0    0    0    0  0.00000000000E+00  0.00000000000E+00  0.12525980253E-10  0.17130000000E+03  0.17130000000E+03 0.  1.
       11    1    1    2    0    0 -0.27241224861E-01 -0.36826072081E-01  0.79396204250E-01  0.91663855411E-01  0.51109989000E-03 0. -1.
     -623    1    1    2    0    0  0.89935346375E-01  0.82727164225E-03  0.59308625280E-01  0.17130003388E+03  0.17130000000E+03 0.  1.
      622    1    1    2    0    0 -0.62694121514E-01  0.35998800439E-01  0.38612951378E+01  0.39083022667E+01  0.60000000000E+00 0. -1.
</event>
<event>
 5   0  0.1014700E+04  0.9118800E+02  0.7818608E-02  0.1180000E+00
       11   -1    0    0    0    0  0.00000000000E+00  0.00000000000E+00  0.39999999673E+01  0.40000000000E+01  0.51109989000E-03 0. -1.
     -623   -1    0    0    0    0  0.00000000000E+00  0.00000000000E+00  0.12525980253E-10  0.17130000000E+03  0.17130000000E+03 0. -1.
       11    1    1    2    0    0  0.35152318943E-03  0.11735309155E+00  0.53079687383E+00  0.54361517102E+00  0.51109989000E-03 0. -1.
     -623    1    1    2    0    0  0.61497990309E-01 -0.67469816782E-02  0.67678823080E-01  0.17130002454E+03  0.17130000000E+03 0. -1.
      622    1    1    2    0    0 -0.61849513498E-01 -0.11060610987E+00  0.34015242704E+01  0.34563602874E+01  0.60000000000E+00 0. -1.
</event>
<event>
 5   0  0.1014700E+04  0.9118800E+02  0.7818608E-02  0.1180000E+00
       11   -1    0    0    0    0  0.00000000000E+00  0.00000000000E+00  0.39999999673E+01  0.40000000000E+01  0.51109989000E-03 0.  1.
     -623   -1    0    0    0    0  0.00000000000E+00  0.00000000000E+00  0.12525980253E-10  0.17130000000E+03  0.17130000000E+03 0.  1.
       11    1    1    2    0    0 -0.45500060433E-02 -0.35961523200E-01  0.61353324328E-02  0.36767339216E-01  0.51109989000E-03 0.  1.
     -623    1    1    2    0    0  0.92882367570E-02  0.29116915359E-01  0.76341517547E-01  0.17130001974E+03  0.17130000000E+03 0.  1.
      622    1    1    2    0    0 -0.47382307137E-02  0.68446078411E-02  0.39175231174E+01  0.39632129232E+01  0.60000000000E+00 0.  1.
</event>
<event>
 5   0  0.1014700E+04  0.9118800E+02  0.7818608E-02  0.1180000E+00
       11   -1    0    0    0    0  0.00000000000E+00  0.00000000000E+00  0.39999999673E+01  0.40000000000E+01  0.51109989000E-03 0. -1.
     -623   -1    0    0    0    0  0.00000000000E+00  0.00000000000E+00  0.12525980253E-10  0.17130000000E+03  0.17130000000E+03 0. -1.
       11    1    1    2    0    0  0.11950401805E-01 -0.57012440728E-01  0.24597537388E+00  0.25277930351E+00  0.51109989000E-03 0. -1.
     -623    1    1    2    0    0  0.51549890907E-02  0.46095106540E-01  0.55222436524E-01  0.17130001518E+03  0.17130000000E+03 0. -1.
      622    1    1    2    0    0 -0.17105390896E-01  0.10917334188E-01  0.36988021570E+01  0.37472055160E+01  0.60000000000E+00 0. -1.
</event>
<event>
 5   0  0.1014700E+04  0.9118800E+02  0.7818608E-02  0.1180000E+00
       11   -1    0    0    0    0  0.00000000000E+00  0.00000000000E+00  0.39999999673E+01  0.40000000000E+01  0.51109989000E-03 0. -1.
     -623   -1    0    0    0    0  0.00000000000E+00  0.00000000000E+00  0.12525980253E-10  0.17130000000E+03  0.17130000000E+03 0. -1.
       11    1    1    2    0    0  0.22360684414E-01  0.44939059666E-01  0.10775474649E+00  0.11887331873E+00  0.51109989000E-03 0. -1.
     -623    1    1    2    0    0 -0.98187469212E-01 -0.12606549137E-01  0.58702587920E-01  0.17130003866E+03  0.17130000000E+03 0. -1.
      622    1    1    2    0    0  0.75826784798E-01 -0.32332510530E-01  0.38335426330E+01  0.38810880190E+01  0.60000000000E+00 0. -1.
</event>
<event>
 5   0  0.1014700E+04  0.9118800E+02  0.7818608E-02  0.1180000E+00
       11   -1    0    0    0    0  0.00000000000E+00  0.00000000000E+00  0.39999999673E+01  0.40000000000E+01  0.51109989000E-03 0.  1.
     -623   -1    0    0    0    0  0.00000000000E+00  0.00000000000E+00  0.12525980253E-10  0.17130000000E+03  0.17130000000E+03 0.  1.
       11    1    1    2    0    0  0.32663416551E-02  0.27966853690E-03  0.23025814487E+00  0.23028204816E+00  0.51109989000E-03 0.  1.
     -623    1    1    2    0    0  0.11196780915E+00  0.10120161409E-01  0.49922824101E-01  0.17130004417E+03  0.17130000000E+03 0.  1.
      622    1    1    2    0    0 -0.11523415081E+00 -0.10399829946E-01  0.37198189984E+01  0.37696737852E+01  0.60000000000E+00 0.  1.
</event>
<event>
 5   0  0.1014700E+04  0.9118800E+02  0.7818608E-02  0.1180000E+00
       11   -1    0    0    0    0  0.00000000000E+00  0.00000000000E+00  0.39999999673E+01  0.40000000000E+01  0.51109989000E-03 0.  1.
     -623   -1    0    0    0    0  0.00000000000E+00  0.00000000000E+00  0.12525980253E-10  0.17130000000E+03  0.17130000000E+03 0. -1.
       11    1    1    2    0    0  0.39281651461E-01  0.29854868081E-01  0.31606842671E-01  0.58597056380E-01  0.51109989000E-03 0.  1.
     -623    1    1    2    0    0 -0.37250833655E-01 -0.19874580360E-01  0.72961192971E-01  0.17130002074E+03  0.17130000000E+03 0. -1.
      622    1    1    2    0    0 -0.20308178064E-02 -0.99802877202E-02  0.38954319317E+01  0.39413822024E+01  0.60000000000E+00 0.  1.
</event>
<event>
 5   0  0.1014700E+04  0.9118800E+02  0.7818608E-02  0.1180000E+00
       11   -1    0    0    0    0  0.00000000000E+00  0.00000000000E+00  0.39999999673E+01  0.40000000000E+01  0.51109989000E-03 0. -1.
     -623   -1    0    0    0    0  0.00000000000E+00  0.00000000000E+00  0.12525980253E-10  0.17130000000E+03  0.17130000000E+03 0.  1.
       11    1    1    2    0    0  0.30932502596E-01  0.85222809503E-02 -0.31664474535E-01  0.45081583381E-01  0.51109989000E-03 0. -1.
     -623    1    1    2    0    0  0.15356709819E-01 -0.51540228248E-01  0.12308798979E+00  0.17130005266E+03  0.17130000000E+03 0.  1.
      622    1    1    2    0    0 -0.46289212415E-01  0.43017947298E-01  0.39085764521E+01  0.39548657521E+01  0.60000000000E+00 0. -1.
</event>
<event>
 5   0  0.1014700E+04  0.9118800E+02  0.7818608E-02  0.1180000E+00
       11   -1    0    0    0    0  0.00000000000E+00  0.00000000000E+00  0.39999999673E+01  0.40000000000E+01  0.51109989000E-03 0. -1.
     -623   -1    0    0    0    0  0.00000000000E+00  0.00000000000E+00  0.12525980253E-10  0.17130000000E+03  0.17130000000E+03 0.  1.
       11    1    1    2    0    0  0.61212762979E-01  0.11273192114E+00  0.16030613091E+00  0.20531391873E+00  0.51109989000E-03 0. -1.
     -623    1    1    2    0    0 -0.16438358430E-01 -0.35142873136E-01  0.93844237934E-01  0.17130003010E+03  0.17130000000E+03 0.  1.
      622    1    1    2    0    0 -0.44774404549E-01 -0.77589048003E-01  0.37458495985E+01  0.37946559821E+01  0.60000000000E+00 0. -1.
</event>
<event>
 5   0  0.1014700E+04  0.9118800E+02  0.7818608E-02  0.1180000E+00
       11   -1    0    0    0    0  0.00000000000E+00  0.00000000000E+00  0.39999999673E+01  0.40000000000E+01  0.51109989000E-03 0. -1.
     -623   -1    0    0    0    0  0.00000000000E+00  0.00000000000E+00  0.12525980253E-10  0.17130000000E+03  0.17130000000E+03 0.  1.
       11    1    1    2    0    0 -0.73766732499E-02  0.19790860454E-01  0.18969790473E-01  0.28393795791E-01  0.51109989000E-03 0. -1.
     -623    1    1    2    0    0  0.13807187384E-01 -0.31020843105E-02  0.55057552198E-01  0.17130000943E+03  0.17130000000E+03 0.  1.
      622    1    1    2    0    0 -0.64305141338E-02 -0.16688776143E-01  0.39259726247E+01  0.39715967716E+01  0.60000000000E+00 0. -1.
</event>
<event>
 5   0  0.1014700E+04  0.9118800E+02  0.7818608E-02  0.1180000E+00
       11   -1    0    0    0    0  0.00000000000E+00  0.00000000000E+00  0.39999999673E+01  0.40000000000E+01  0.51109989000E-03 0. -1.
     -623   -1    0    0    0    0  0.00000000000E+00  0.00000000000E+00  0.12525980253E-10  0.17130000000E+03  0.17130000000E+03 0.  1.
       11    1    1    2    0    0  0.59597591365E-01  0.41671057360E-01  0.24992170418E-01  0.76897462398E-01  0.51109989000E-03 0. -1.
     -623    1    1    2    0    0  0.42980614119E-01 -0.12234165125E+00  0.10033518564E+00  0.17130007846E+03  0.17130000000E+03 0.  1.
      622    1    1    2    0    0 -0.10257820548E+00  0.80670593886E-01  0.38746726113E+01  0.39230240730E+01  0.60000000000E+00 0. -1.
</event>
<event>
 5   0  0.1014700E+04  0.9118800E+02  0.7818608E-02  0.1180000E+00
       11   -1    0    0    0    0  0.00000000000E+00  0.00000000000E+00  0.39999999673E+01  0.40000000000E+01  0.51109989000E-03 0.  1.
     -623   -1    0    0    0    0  0.00000000000E+00  0.00000000000E+00  0.12525980253E-10  0.17130000000E+03  0.17130000000E+03 0. -1.
       11    1    1    2    0    0 -0.15476433286E-01 -0.26151691123E-01  0.72564403515E-01  0.78672007832E-01  0.51109989000E-03 0.  1.
     -623    1    1    2    0    0  0.13525115203E-01  0.14884193974E-01  0.52308396387E-01  0.17130000917E+03  0.17130000000E+03 0. -1.
      622    1    1    2    0    0  0.19513180831E-02  0.11267497149E-01  0.38751271675E+01  0.39213188251E+01  0.60000000000E+00 0.  1.
</event>
<event>
 5   0  0.1014700E+04  0.9118800E+02  0.7818608E-02  0.1180000E+00
       11   -1    0    0    0    0  0.00000000000E+00  0.00000000000E+00  0.39999999673E+01  0.40000000000E+01  0.51109989000E-03 0. -1.
     -623   -1    0    0    0    0  0.00000000000E+00  0.00000000000E+00  0.12525980253E-10  0.17130000000E+03  0.17130000000E+03 0.  1.
       11    1    1    2    0    0 -0.42855313688E-02  0.69936808600E-02 -0.35669003327E-01  0.36603502189E-01  0.51109989000E-03 0. -1.
     -623    1    1    2    0    0 -0.10388169887E+00  0.70885662169E-01  0.12030875335E+00  0.17130008841E+03  0.17130000000E+03 0.  1.
      622    1    1    2    0    0  0.10816723023E+00 -0.77879343029E-01  0.39153602173E+01  0.39633080846E+01  0.60000000000E+00 0. -1.
</event>
<event>
 5   0  0.1014700E+04  0.9118800E+02  0.7818608E-02  0.1180000E+00
       11   -1    0    0    0    0  0.00000000000E+00  0.00000000000E+00  0.39999999673E+01  0.40000000000E+01  0.51109989000E-03 0. -1.
     -623   -1    0    0    0    0  0.00000000000E+00  0.00000000000E+00  0.12525980253E-10  0.17130000000E+03  0.17130000000E+03 0. -1.
       11    1    1    2    0    0 -0.12649780239E-02  0.19224412449E-02 -0.93186464619E-02  0.96121977050E-02  0.51109989000E-03 0. -1.
     -623    1    1    2    0    0 -0.56387130050E-01  0.55049890874E-02  0.64747223556E-01  0.17130002161E+03  0.17130000000E+03 0. -1.
      622    1    1    2    0    0  0.57652108074E-01 -0.74274303322E-02  0.39445713903E+01  0.39903661969E+01  0.60000000000E+00 0. -1.
</event>
<event>
 5   0  0.1014700E+04  0.9118800E+02  0.7818608E-02  0.1180000E+00
       11   -1    0    0    0    0  0.00000000000E+00  0.00000000000E+00  0.39999999673E+01  0.40000000000E+01  0.51109989000E-03 0.  1.
     -623   -1    0    0    0    0  0.00000000000E+00  0.00000000000E+00  0.12525980253E-10  0.17130000000E+03  0.17130000000E+03 0.  1.
       11    1    1    2    0    0 -0.95186699169E-02  0.27764788425E-02  0.36040563879E+00  0.36054236867E+00  0.51109989000E-03 0.  1.
     -623    1    1    2    0    0  0.34822237973E-01 -0.20491684630E-01  0.50080464443E-01  0.17130001209E+03  0.17130000000E+03 0.  1.
      622    1    1    2    0    0 -0.25303568057E-01  0.17715205787E-01  0.35895138641E+01  0.36394455457E+01  0.60000000000E+00 0.  1.
</event>
<event>
 5   0  0.1014700E+04  0.9118800E+02  0.7818608E-02  0.1180000E+00
       11   -1    0    0    0    0  0.00000000000E+00  0.00000000000E+00  0.39999999673E+01  0.40000000000E+01  0.51109989000E-03 0.  1.
     -623   -1    0    0    0    0  0.00000000000E+00  0.00000000000E+00  0.12525980253E-10  0.17130000000E+03  0.17130000000E+03 0. -1.
       11    1    1    2    0    0 -0.22202709955E-01  0.36453095881E-01  0.49369636366E+00  0.49553824195E+00  0.51109989000E-03 0.  1.
     -623    1    1    2    0    0  0.76400001414E-01 -0.76050881803E-01  0.54282620852E-01  0.17130004252E+03  0.17130000000E+03 0. -1.
      622    1    1    2    0    0 -0.54197291459E-01  0.39597785922E-01  0.34520209829E+01  0.35044192382E+01  0.60000000000E+00 0.  1.
</event>
<event>
 5   0  0.1014700E+04  0.9118800E+02  0.7818608E-02  0.1180000E+00
       11   -1    0    0    0    0  0.00000000000E+00  0.00000000000E+00  0.39999999673E+01  0.40000000000E+01  0.51109989000E-03 0.  1.
     -623   -1    0    0    0    0  0.00000000000E+00  0.00000000000E+00  0.12525980253E-10  0.17130000000E+03  0.17130000000E+03 0. -1.
       11    1    1    2    0    0  0.10084964660E-01 -0.10436729945E-01  0.18352070387E-01  0.23402810807E-01  0.51109989000E-03 0.  1.
     -623    1    1    2    0    0 -0.38826070350E-01  0.22439996587E-01  0.50713060472E-01  0.17130001338E+03  0.17130000000E+03 0. -1.
      622    1    1    2    0    0  0.28741105690E-01 -0.12003266643E-01  0.39309348365E+01  0.39765838126E+01  0.60000000000E+00 0.  1.
</event>
<event>
 5   0  0.1014700E+04  0.9118800E+02  0.7818608E-02  0.1180000E+00
       11   -1    0    0    0    0  0.00000000000E+00  0.00000000000E+00  0.39999999673E+01  0.40000000000E+01  0.51109989000E-03 0.  1.
     -623   -1    0    0    0    0  0.00000000000E+00  0.00000000000E+00  0.12525980253E-10  0.17130000000E+03  0.17130000000E+03 0.  1.
       11    1    1    2    0    0  0.60750677170E-01 -0.17391767990E-01  0.20113342710E+00  0.21082702647E+00  0.51109989000E-03 0.  1.
     -623    1    1    2    0    0 -0.38400151550E-01  0.43154934018E-01  0.57674063795E-01  0.17130001945E+03  0.17130000000E+03 0.  1.
      622    1    1    2    0    0 -0.22350525620E-01 -0.25763166028E-01  0.37411924765E+01  0.37891535246E+01  0.60000000000E+00 0.  1.
</event>
<event>
 5   0  0.1014700E+04  0.9118800E+02  0.7818608E-02  0.1180000E+00
       11   -1    0    0    0    0  0.00000000000E+00  0.00000000000E+00  0.39999999673E+01  0.40000000000E+01  0.51109989000E-03 0.  1.
     -623   -1    0    0    0    0  0.00000000000E+00  0.00000000000E+00  0.12525980253E-10  0.17130000000E+03  0.17130000000E+03 0. -1.
       11    1    1    2    0    0  0.52890143387E-01 -0.24325451221E+00  0.10379782481E+01  0.10674123991E+01  0.51109989000E-03 0.  1.
     -623    1    1    2    0    0  0.70252456026E-01  0.15110616369E+00  0.95703096746E-01  0.17130010779E+03  0.17130000000E+03 0. -1.
      622    1    1    2    0    0 -0.12314259941E+00  0.92148348520E-01  0.28663186225E+01  0.29324798147E+01  0.60000000000E+00 0.  1.
</event>
<event>
 5   0  0.1014700E+04  0.9118800E+02  0.7818608E-02  0.1180000E+00
       11   -1    0    0    0    0  0.00000000000E+00  0.00000000000E+00  0.39999999673E+01  0.40000000000E+01  0.51109989000E-03 0. -1.
     -623   -1    0    0    0    0  0.00000000000E+00  0.00000000000E+00  0.12525980253E-10  0.17130000000E+03  0.17130000000E+03 0. -1.
       11    1    1    2    0    0 -0.34144853390E-01 -0.15146770069E+00  0.50992196649E-01  0.16342827389E+00  0.51109989000E-03 0. -1.
     -623    1    1    2    0    0 -0.18885085113E+00  0.11019348257E+00  0.16665939892E+00  0.17130022061E+03  0.17130000000E+03 0. -1.
      622    1    1    2    0    0  0.22299570452E+00  0.41274218119E-01  0.37823483718E+01  0.38363511115E+01  0.60000000000E+00 0. -1.
</event>
<event>
 5   0  0.1014700E+04  0.9118800E+02  0.7818608E-02  0.1180000E+00
       11   -1    0    0    0    0  0.00000000000E+00  0.00000000000E+00  0.39999999673E+01  0.40000000000E+01  0.51109989000E-03 0. -1.
     -623   -1    0    0    0    0  0.00000000000E+00  0.00000000000E+00  0.12525980253E-10  0.17130000000E+03  0.17130000000E+03 0.  1.
       11    1    1    2    0    0 -0.12493197683E-01 -0.23088450656E-02  0.16785762024E-01  0.21057867445E-01  0.51109989000E-03 0. -1.
     -623    1    1    2    0    0  0.89027109097E-01 -0.38639159028E-03  0.50546873820E-01  0.17130003059E+03  0.17130000000E+03 0.  1.
      622    1    1    2    0    0 -0.76533911413E-01  0.26952366559E-02  0.39326673315E+01  0.39789115401E+01  0.60000000000E+00 0. -1.
</event>
<event>
 5   0  0.1014700E+04  0.9118800E+02  0.7818608E-02  0.1180000E+00
       11   -1    0    0    0    0  0.00000000000E+00  0.00000000000E+00  0.39999999673E+01  0.40000000000E+01  0.51109989000E-03 0.  1.
     -623   -1    0    0    0    0  0.00000000000E+00  0.00000000000E+00  0.12525980253E-10  0.17130000000E+03  0.17130000000E+03 0.  1.
       11    1    1    2    0    0  0.43651090565E-01  0.59581798468E-01  0.12133982278E+00  0.14205288533E+00  0.51109989000E-03 0.  1.
     -623    1    1    2    0    0 -0.36392390340E-01 -0.13202447832E+00  0.68420323621E-01  0.17130006841E+03  0.17130000000E+03 0.  1.
      622    1    1    2    0    0 -0.72587002249E-02  0.72442679848E-01  0.38102398210E+01  0.38578787078E+01  0.60000000000E+00 0.  1.
</event>
<event>
 5   0  0.1014700E+04  0.9118800E+02  0.7818608E-02  0.1180000E+00
       11   -1    0    0    0    0  0.00000000000E+00  0.00000000000E+00  0.39999999673E+01  0.40000000000E+01  0.51109989000E-03 0. -1.
     -623   -1    0    0    0    0  0.00000000000E+00  0.00000000000E+00  0.12525980253E-10  0.17130000000E+03  0.17130000000E+03 0.  1.
       11    1    1    2    0    0 -0.33440295612E-02  0.10645988824E-01  0.47198120990E-02  0.12126725077E-01  0.51109989000E-03 0. -1.
     -623    1    1    2    0    0 -0.21902576605E-01  0.84011931730E-02  0.52938843711E-01  0.17130000979E+03  0.17130000000E+03 0.  1.
      622    1    1    2    0    0  0.25246606166E-01 -0.19047181998E-01  0.39423413116E+01  0.39878634885E+01  0.60000000000E+00 0. -1.
</event>
<event>
 5   0  0.1014700E+04  0.9118800E+02  0.7818608E-02  0.1180000E+00
       11   -1    0    0    0    0  0.00000000000E+00  0.00000000000E+00  0.39999999673E+01  0.40000000000E+01  0.51109989000E-03 0. -1.
     -623   -1    0    0    0    0  0.00000000000E+00  0.00000000000E+00  0.12525980253E-10  0.17130000000E+03  0.17130000000E+03 0.  1.
       11    1    1    2    0    0 -0.26443534862E-01 -0.19994356228E-01  0.18459758442E+00  0.18755149749E+00  0.51109989000E-03 0. -1.
     -623    1    1    2    0    0  0.22134256309E-01  0.50663693490E-01  0.50607650784E-01  0.17130001640E+03  0.17130000000E+03 0.  1.
      622    1    1    2    0    0  0.43092785534E-02 -0.30669337262E-01  0.37647947322E+01  0.38124321048E+01  0.60000000000E+00 0. -1.
</event>
<event>
 5   0  0.1014700E+04  0.9118800E+02  0.7818608E-02  0.1180000E+00
       11   -1    0    0    0    0  0.00000000000E+00  0.00000000000E+00  0.39999999673E+01  0.40000000000E+01  0.51109989000E-03 0.  1.
     -623   -1    0    0    0    0  0.00000000000E+00  0.00000000000E+00  0.12525980253E-10  0.17130000000E+03  0.17130000000E+03 0. -1.
       11    1    1    2    0    0  0.22187950772E-01  0.79837730700E-01  0.41733831705E+00  0.42548548801E+00  0.51109989000E-03 0.  1.
     -623    1    1    2    0    0 -0.92701145087E-01 -0.77062086352E-02  0.60343892596E-01  0.17130003589E+03  0.17130000000E+03 0. -1.
      622    1    1    2    0    0  0.70513194315E-01 -0.72131522065E-01  0.35223177577E+01  0.35744786268E+01  0.60000000000E+00 0.  1.
</event>
<event>
 5   0  0.1014700E+04  0.9118800E+02  0.7818608E-02  0.1180000E+00
       11   -1    0    0    0    0  0.00000000000E+00  0.00000000000E+00  0.39999999673E+01  0.40000000000E+01  0.51109989000E-03 0.  1.
     -623   -1    0    0    0    0  0.00000000000E+00  0.00000000000E+00  0.12525980253E-10  0.17130000000E+03  0.17130000000E+03 0. -1.
       11    1    1    2    0    0 -0.40795885202E-03 -0.37877007060E-02  0.79031737767E-02  0.87883151536E-02  0.51109989000E-03 0.  1.
     -623    1    1    2    0    0  0.21888990561E-02  0.15695506140E-01  0.46267347484E-01  0.17130000698E+03  0.17130000000E+03 0. -1.
      622    1    1    2    0    0 -0.17809402041E-02 -0.11907805434E-01  0.39458294461E+01  0.39912047035E+01  0.60000000000E+00 0.  1.
</event>
<event>
 5   0  0.1014700E+04  0.9118800E+02  0.7818608E-02  0.1180000E+00
       11   -1    0    0    0    0  0.00000000000E+00  0.00000000000E+00  0.39999999673E+01  0.40000000000E+01  0.51109989000E-03 0.  1.
     -623   -1    0    0    0    0  0.00000000000E+00  0.00000000000E+00  0.12525980253E-10  0.17130000000E+03  0.17130000000E+03 0.  1.
       11    1    1    2    0    0 -0.25743807262E-01  0.18549526112E-01  0.19542366694E-01  0.37269207806E-01  0.51109989000E-03 0.  1.
     -623    1    1    2    0    0  0.12489125914E-02 -0.14670910485E-01  0.63504450498E-01  0.17130001240E+03  0.17130000000E+03 0.  1.
      622    1    1    2    0    0  0.24494894671E-01 -0.38786156271E-02  0.39169531502E+01  0.39627183882E+01  0.60000000000E+00 0.  1.
</event>
<event>
 5   0  0.1014700E+04  0.9118800E+02  0.7818608E-02  0.1180000E+00
       11   -1    0    0    0    0  0.00000000000E+00  0.00000000000E+00  0.39999999673E+01  0.40000000000E+01  0.51109989000E-03 0.  1.
     -623   -1    0    0    0    0  0.00000000000E+00  0.00000000000E+00  0.12525980253E-10  0.17130000000E+03  0.17130000000E+03 0.  1.
       11    1    1    2    0    0  0.12432069838E+00 -0.17164648730E+00  0.11237089680E+01  0.11435209917E+01  0.51109989000E-03 0.  1.
     -623    1    1    2    0    0 -0.51935265727E-01  0.11059264033E-01  0.89130270419E-01  0.17130003142E+03  0.17130000000E+03 0.  1.
      622    1    1    2    0    0 -0.72385432654E-01  0.16058722326E+00  0.27871607290E+01  0.28564475903E+01  0.60000000000E+00 0.  1.
</event>
<event>
 5   0  0.1014700E+04  0.9118800E+02  0.7818608E-02  0.1180000E+00
       11   -1    0    0    0    0  0.00000000000E+00  0.00000000000E+00  0.39999999673E+01  0.40000000000E+01  0.51109989000E-03 0. -1.
     -623   -1    0    0    0    0  0.00000000000E+00  0.00000000000E+00  0.12525980253E-10  0.17130000000E+03  0.17130000000E+03 0. -1.
       11    1    1    2    0    0  0.65290880097E-02  0.55261481544E-02  0.10837629272E-01  0.13816031726E-01  0.51109989000E-03 0. -1.
     -623    1    1    2    0    0 -0.58930056520E-02 -0.49029833094E-01  0.48647417998E-01  0.17130001403E+03  0.17130000000E+03 0. -1.
      622    1    1    2    0    0 -0.63608235764E-03  0.43503684939E-01  0.39405149201E+01  0.39861699425E+01  0.60000000000E+00 0. -1.
</event>
<event>
 5   0  0.1014700E+04  0.9118800E+02  0.7818608E-02  0.1180000E+00
       11   -1    0    0    0    0  0.00000000000E+00  0.00000000000E+00  0.39999999673E+01  0.40000000000E+01  0.51109989000E-03 0.  1.
     -623   -1    0    0    0    0  0.00000000000E+00  0.00000000000E+00  0.12525980253E-10  0.17130000000E+03  0.17130000000E+03 0. -1.
       11    1    1    2    0    0  0.69614868556E-01 -0.88828895162E-02  0.31638115532E+00  0.32407164689E+00  0.51109989000E-03 0.  1.
     -623    1    1    2    0    0 -0.10287834776E+00  0.18098761553E-01  0.57194468369E-01  0.17130004140E+03  0.17130000000E+03 0. -1.
      622    1    1    2    0    0  0.33263479207E-01 -0.92158720364E-02  0.36264243437E+01  0.36758869558E+01  0.60000000000E+00 0.  1.
</event>
<event>
 5   0  0.1014700E+04  0.9118800E+02  0.7818608E-02  0.1180000E+00
       11   -1    0    0    0    0  0.00000000000E+00  0.00000000000E+00  0.39999999673E+01  0.40000000000E+01  0.51109989000E-03 0.  1.
     -623   -1    0    0    0    0  0.00000000000E+00  0.00000000000E+00  0.12525980253E-10  0.17130000000E+03  0.17130000000E+03 0.  1.
       11    1    1    2    0    0  0.12405776097E-01 -0.97125270772E-02 -0.62193512373E-02  0.16946327483E-01  0.51109989000E-03 0.  1.
     -623    1    1    2    0    0 -0.87648358727E-01 -0.29761691915E-01  0.69572886803E-01  0.17130003914E+03  0.17130000000E+03 0.  1.
      622    1    1    2    0    0  0.75242582630E-01  0.39474218992E-01  0.39366464318E+01  0.39830145354E+01  0.60000000000E+00 0.  1.
</event>
<event>
 5   0  0.1014700E+04  0.9118800E+02  0.7818608E-02  0.1180000E+00
       11   -1    0    0    0    0  0.00000000000E+00  0.00000000000E+00  0.39999999673E+01  0.40000000000E+01  0.51109989000E-03 0.  1.
     -623   -1    0    0    0    0  0.00000000000E+00  0.00000000000E+00  0.12525980253E-10  0.17130000000E+03  0.17130000000E+03 0. -1.
       11    1    1    2    0    0 -0.18706996912E-01 -0.66658874944E-02  0.14277372665E-01  0.24464063091E-01  0.51109989000E-03 0.  1.
     -623    1    1    2    0    0  0.40894460488E-01 -0.52373625033E-01  0.56252894125E-01  0.17130002212E+03  0.17130000000E+03 0. -1.
      622    1    1    2    0    0 -0.22187463575E-01  0.59039512527E-01  0.39294697006E+01  0.39755138127E+01  0.60000000000E+00 0.  1.
</event>
<event>
 5   0  0.1014700E+04  0.9118800E+02  0.7818608E-02  0.1180000E+00
       11   -1    0    0    0    0  0.00000000000E+00  0.00000000000E+00  0.39999999673E+01  0.40000000000E+01  0.51109989000E-03 0. -1.
     -623   -1    0    0    0    0  0.00000000000E+00  0.00000000000E+00  0.12525980253E-10  0.17130000000E+03  0.17130000000E+03 0.  1.
       11    1    1    2    0    0  0.81166929575E-01  0.11013364838E+00  0.31237250209E+00  0.34101954819E+00  0.51109989000E-03 0. -1.
     -623    1    1    2    0    0  0.59089838665E-01  0.40419293767E-01  0.84082084697E-01  0.17130003560E+03  0.17130000000E+03 0.  1.
      622    1    1    2    0    0 -0.14025676824E+00 -0.15055294214E+00  0.36035453806E+01  0.36589448560E+01  0.60000000000E+00 0.  0.
</event>
<event>
 5   0  0.1014700E+04  0.9118800E+02  0.7818608E-02  0.1180000E+00
       11   -1    0    0    0    0  0.00000000000E+00  0.00000000000E+00  0.39999999673E+01  0.40000000000E+01  0.51109989000E-03 0. -1.
     -623   -1    0    0    0    0  0.00000000000E+00  0.00000000000E+00  0.12525980253E-10  0.17130000000E+03  0.17130000000E+03 0.  1.
       11    1    1    2    0    0 -0.10377275430E+00 -0.10075877947E-01  0.17828437887E+00  0.20653302114E+00  0.51109989000E-03 0. -1.
     -623    1    1    2    0    0  0.57645164987E-01 -0.38861761337E-01  0.76634549814E-01  0.17130003125E+03  0.17130000000E+03 0.  1.
      622    1    1    2    0    0  0.46127589309E-01  0.48937639284E-01  0.37450810387E+01  0.37934357294E+01  0.60000000000E+00 0. -1.
</event>
<event>
 5   0  0.1014700E+04  0.9118800E+02  0.7818608E-02  0.1180000E+00
       11   -1    0    0    0    0  0.00000000000E+00  0.00000000000E+00  0.39999999673E+01  0.40000000000E+01  0.51109989000E-03 0.  1.
     -623   -1    0    0    0    0  0.00000000000E+00  0.00000000000E+00  0.12525980253E-10  0.17130000000E+03  0.17130000000E+03 0. -1.
       11    1    1    2    0    0  0.79887659262E-02  0.60691925821E-01  0.13226023173E+00  0.14574072993E+00  0.51109989000E-03 0.  1.
     -623    1    1    2    0    0  0.12266809190E+00  0.12469059956E-01  0.63471334353E-01  0.17130005613E+03  0.17130000000E+03 0. -1.
      622    1    1    2    0    0 -0.13065685783E+00 -0.73160985776E-01  0.38042684013E+01  0.38542031360E+01  0.60000000000E+00 0.  1.
</event>
<event>
 5   0  0.1014700E+04  0.9118800E+02  0.7818608E-02  0.1180000E+00
       11   -1    0    0    0    0  0.00000000000E+00  0.00000000000E+00  0.39999999673E+01  0.40000000000E+01  0.51109989000E-03 0. -1.
     -623   -1    0    0    0    0  0.00000000000E+00  0.00000000000E+00  0.12525980253E-10  0.17130000000E+03  0.17130000000E+03 0.  1.
       11    1    1    2    0    0  0.67567948239E-02 -0.17157859051E-01  0.96947788278E-01  0.98687290360E-01  0.51109989000E-03 0. -1.
     -623    1    1    2    0    0  0.62400920968E-01  0.77332452717E-01  0.49280403714E-01  0.17130003591E+03  0.17130000000E+03 0.  1.
      622    1    1    2    0    0 -0.69157715792E-01 -0.60174593667E-01  0.38537717754E+01  0.39012767997E+01  0.60000000000E+00 0.  0.
</event>
<event>
 5   0  0.1014700E+04  0.9118800E+02  0.7818608E-02  0.1180000E+00
       11   -1    0    0    0    0  0.00000000000E+00  0.00000000000E+00  0.39999999673E+01  0.40000000000E+01  0.51109989000E-03 0. -1.
     -623   -1    0    0    0    0  0.00000000000E+00  0.00000000000E+00  0.12525980253E-10  0.17130000000E+03  0.17130000000E+03 0. -1.
       11    1    1    2    0    0 -0.69790299105E-01 -0.35604019707E-01  0.12114937285E+00  0.14427669192E+00  0.51109989000E-03 0. -1.
     -623    1    1    2    0    0  0.77308749871E-01 -0.46154056491E-01  0.71021119231E-01  0.17130003839E+03  0.17130000000E+03 0. -1.
      622    1    1    2    0    0 -0.75184507662E-02  0.81758076198E-01  0.38078294753E+01  0.38556849227E+01  0.60000000000E+00 0. -1.
</event>
<event>
 5   0  0.1014700E+04  0.9118800E+02  0.7818608E-02  0.1180000E+00
       11   -1    0    0    0    0  0.00000000000E+00  0.00000000000E+00  0.39999999673E+01  0.40000000000E+01  0.51109989000E-03 0.  1.
     -623   -1    0    0    0    0  0.00000000000E+00  0.00000000000E+00  0.12525980253E-10  0.17130000000E+03  0.17130000000E+03 0. -1.
       11    1    1    2    0    0 -0.41992921522E-01 -0.85695577285E-01  0.84058511851E-01  0.12717402275E+00  0.51109989000E-03 0.  1.
     -623    1    1    2    0    0  0.26567818986E-02  0.11443295025E+00  0.90248377108E-01  0.17130006202E+03  0.17130000000E+03 0. -1.
      622    1    1    2    0    0  0.39336139624E-01 -0.28737372961E-01  0.38256930784E+01  0.38727639611E+01  0.60000000000E+00 0.  1.
</event>
<event>
 5   0  0.1014700E+04  0.9118800E+02  0.7818608E-02  0.1180000E+00
       11   -1    0    0    0    0  0.00000000000E+00  0.00000000000E+00  0.39999999673E+01  0.40000000000E+01  0.51109989000E-03 0. -1.
     -623   -1    0    0    0    0  0.00000000000E+00  0.00000000000E+00  0.12525980253E-10  0.17130000000E+03  0.17130000000E+03 0. -1.
       11    1    1    2    0    0 -0.16414611163E+00  0.85459807766E-01  0.95164554006E+00  0.96947244409E+00  0.51109989000E-03 0. -1.
     -623    1    1    2    0    0  0.86836701173E-01 -0.66209443052E-02  0.79910759950E-01  0.17130004078E+03  0.17130000000E+03 0. -1.
      622    1    1    2    0    0  0.77309410458E-01 -0.78838863461E-01  0.29684436673E+01  0.30304867790E+01  0.60000000000E+00 0.  0.
</event>
<event>
 5   0  0.1014700E+04  0.9118800E+02  0.7818608E-02  0.1180000E+00
       11   -1    0    0    0    0  0.00000000000E+00  0.00000000000E+00  0.39999999673E+01  0.40000000000E+01  0.51109989000E-03 0.  1.
     -623   -1    0    0    0    0  0.00000000000E+00  0.00000000000E+00  0.12525980253E-10  0.17130000000E+03  0.17130000000E+03 0. -1.
       11    1    1    2    0    0 -0.21211996204E-01  0.31260482861E-02  0.22356977972E-01  0.30980907798E-01  0.51109989000E-03 0.  1.
     -623    1    1    2    0    0  0.22692628732E-01  0.82335489658E-02  0.54264395307E-01  0.17130001030E+03  0.17130000000E+03 0. -1.
      622    1    1    2    0    0 -0.14806325275E-02 -0.11359597252E-01  0.39233785941E+01  0.39690087963E+01  0.60000000000E+00 0.  1.
</event>
<event>
 5   0  0.1014700E+04  0.9118800E+02  0.7818608E-02  0.1180000E+00
       11   -1    0    0    0    0  0.00000000000E+00  0.00000000000E+00  0.39999999673E+01  0.40000000000E+01  0.51109989000E-03 0.  1.
     -623   -1    0    0    0    0  0.00000000000E+00  0.00000000000E+00  0.12525980253E-10  0.17130000000E+03  0.17130000000E+03 0. -1.
       11    1    1    2    0    0  0.57977467563E-02 -0.25379036656E-01  0.67909808343E-01  0.72730410843E-01  0.51109989000E-03 0.  1.
     -623    1    1    2    0    0 -0.29501074860E-01  0.69575425474E-01  0.51273227883E-01  0.17130002434E+03  0.17130000000E+03 0. -1.
      622    1    1    2    0    0  0.23703328104E-01 -0.44196388818E-01  0.38808169311E+01  0.39272452459E+01  0.60000000000E+00 0.  1.
</event>
<event>
 5   0  0.1014700E+04  0.9118800E+02  0.7818608E-02  0.1180000E+00
       11   -1    0    0    0    0  0.00000000000E+00  0.00000000000E+00  0.39999999673E+01  0.40000000000E+01  0.51109989000E-03 0.  1.
     -623   -1    0    0    0    0  0.00000000000E+00  0.00000000000E+00  0.12525980253E-10  0.17130000000E+03  0.17130000000E+03 0. -1.
       11    1    1    2    0    0  0.25777269353E-01 -0.26670005070E-03  0.98742552891E-02  0.27609796900E-01  0.51109989000E-03 0.  1.
     -623    1    1    2    0    0 -0.25748044555E-02  0.27072908135E-02  0.63390922747E-01  0.17130001177E+03  0.17130000000E+03 0. -1.
      622    1    1    2    0    0 -0.23202464898E-01 -0.24405907628E-02  0.39267347893E+01  0.39723784332E+01  0.60000000000E+00 0.  1.
</event>
<event>
 5   0  0.1014700E+04  0.9118800E+02  0.7818608E-02  0.1180000E+00
       11   -1    0    0    0    0  0.00000000000E+00  0.00000000000E+00  0.39999999673E+01  0.40000000000E+01  0.51109989000E-03 0. -1.
     -623   -1    0    0    0    0  0.00000000000E+00  0.00000000000E+00  0.12525980253E-10  0.17130000000E+03  0.17130000000E+03 0.  1.
       11    1    1    2    0    0 -0.12480595019E+00  0.11050109927E-01  0.10189656462E+01  0.10266400925E+01  0.51109989000E-03 0. -1.
     -623    1    1    2    0    0  0.71344301115E-01  0.32459052199E-01  0.69689785181E-01  0.17130003211E+03  0.17130000000E+03 0.  1.
      622    1    1    2    0    0  0.53461649070E-01 -0.43509162126E-01  0.29113445359E+01  0.29733277993E+01  0.60000000000E+00 0. -1.
</event>
<event>
 5   0  0.1014700E+04  0.9118800E+02  0.7818608E-02  0.1180000E+00
       11   -1    0    0    0    0  0.00000000000E+00  0.00000000000E+00  0.39999999673E+01  0.40000000000E+01  0.51109989000E-03 0. -1.
     -623   -1    0    0    0    0  0.00000000000E+00  0.00000000000E+00  0.12525980253E-10  0.17130000000E+03  0.17130000000E+03 0. -1.
       11    1    1    2    0    0  0.64341355070E-01  0.18367090473E-01  0.11718249342E+00  0.13494131306E+00  0.51109989000E-03 0. -1.
     -623    1    1    2    0    0 -0.63112501294E-01  0.17372907424E-01  0.64806427415E-01  0.17130002477E+03  0.17130000000E+03 0. -1.
      622    1    1    2    0    0 -0.12288537768E-02 -0.35739997897E-01  0.38180110465E+01  0.38650339208E+01  0.60000000000E+00 0. -1.
</event>
<event>
 5   0  0.1014700E+04  0.9118800E+02  0.7818608E-02  0.1180000E+00
       11   -1    0    0    0    0  0.00000000000E+00  0.00000000000E+00  0.39999999673E+01  0.40000000000E+01  0.51109989000E-03 0. -1.
     -623   -1    0    0    0    0  0.00000000000E+00  0.00000000000E+00  0.12525980253E-10  0.17130000000E+03  0.17130000000E+03 0.  1.
       11    1    1    2    0    0 -0.96913266053E-01 -0.15258342685E+00  0.49536566128E+00  0.52731516466E+00  0.51109989000E-03 0. -1.
     -623    1    1    2    0    0  0.32240387474E-01 -0.80013178951E-01  0.92753455616E-01  0.17130004683E+03  0.17130000000E+03 0.  1.
      622    1    1    2    0    0  0.64672878579E-01  0.23259660580E+00  0.34118808505E+01  0.34726380030E+01  0.60000000000E+00 0. -1.
</event>
<event>
 5   0  0.1014700E+04  0.9118800E+02  0.7818608E-02  0.1180000E+00
       11   -1    0    0    0    0  0.00000000000E+00  0.00000000000E+00  0.39999999673E+01  0.40000000000E+01  0.51109989000E-03 0. -1.
     -623   -1    0    0    0    0  0.00000000000E+00  0.00000000000E+00  0.12525980253E-10  0.17130000000E+03  0.17130000000E+03 0.  1.
       11    1    1    2    0    0 -0.94964477014E-01  0.10746616029E-01  0.47010677862E+00  0.47972323915E+00  0.51109989000E-03 0. -1.
     -623    1    1    2    0    0  0.14008257455E-01 -0.62497073606E-01  0.62480330436E-01  0.17130002337E+03  0.17130000000E+03 0.  1.
      622    1    1    2    0    0  0.80956219559E-01  0.51750457578E-01  0.34674128583E+01  0.35202533928E+01  0.60000000000E+00 0. -1.
</event>
<event>
 5   0  0.1014700E+04  0.9118800E+02  0.7818608E-02  0.1180000E+00
       11   -1    0    0    0    0  0.00000000000E+00  0.00000000000E+00  0.39999999673E+01  0.40000000000E+01  0.51109989000E-03 0.  1.
     -623   -1    0    0    0    0  0.00000000000E+00  0.00000000000E+00  0.12525980253E-10  0.17130000000E+03  0.17130000000E+03 0.  1.
       11    1    1    2    0    0 -0.94037294854E-01 -0.12026375559E+00  0.14230196900E+00  0.20870192940E+00  0.51109989000E-03 0.  1.
     -623    1    1    2    0    0  0.14975740015E+00 -0.98538854379E-02  0.11696218251E+00  0.17130010568E+03  0.17130000000E+03 0.  1.
      622    1    1    2    0    0 -0.55720105298E-01  0.13011764103E+00  0.37407358158E+01  0.37911923948E+01  0.60000000000E+00 0.  1.
</event>
<event>
 5   0  0.1014700E+04  0.9118800E+02  0.7818608E-02  0.1180000E+00
       11   -1    0    0    0    0  0.00000000000E+00  0.00000000000E+00  0.39999999673E+01  0.40000000000E+01  0.51109989000E-03 0. -1.
     -623   -1    0    0    0    0  0.00000000000E+00  0.00000000000E+00  0.12525980253E-10  0.17130000000E+03  0.17130000000E+03 0.  1.
       11    1    1    2    0    0 -0.33083632654E-01  0.18451169950E-01  0.60566092557E+00  0.60684461801E+00  0.51109989000E-03 0. -1.
     -623    1    1    2    0    0 -0.12040565786E-01 -0.34441332163E-01  0.55008980237E-01  0.17130001272E+03  0.17130000000E+03 0.  1.
      622    1    1    2    0    0  0.45124198440E-01  0.15990162213E-01  0.33393300615E+01  0.33931426640E+01  0.60000000000E+00 0. -1.
</event>
<event>
 5   0  0.1014700E+04  0.9118800E+02  0.7818608E-02  0.1180000E+00
       11   -1    0    0    0    0  0.00000000000E+00  0.00000000000E+00  0.39999999673E+01  0.40000000000E+01  0.51109989000E-03 0.  1.
     -623   -1    0    0    0    0  0.00000000000E+00  0.00000000000E+00  0.12525980253E-10  0.17130000000E+03  0.17130000000E+03 0.  1.
       11    1    1    2    0    0  0.32289996272E-02 -0.26487132763E-01  0.30884836003E-01  0.40818242964E-01  0.51109989000E-03 0.  1.
     -623    1    1    2    0    0  0.12588978067E-01  0.41692201875E-01  0.55737671758E-01  0.17130001460E+03  0.17130000000E+03 0.  1.
      622    1    1    2    0    0 -0.15817977694E-01 -0.15205069111E-01  0.39133774596E+01  0.39591671528E+01  0.60000000000E+00 0.  1.
</event>
<event>
 5   0  0.1014700E+04  0.9118800E+02  0.7818608E-02  0.1180000E+00
       11   -1    0    0    0    0  0.00000000000E+00  0.00000000000E+00  0.39999999673E+01  0.40000000000E+01  0.51109989000E-03 0. -1.
     -623   -1    0    0    0    0  0.00000000000E+00  0.00000000000E+00  0.12525980253E-10  0.17130000000E+03  0.17130000000E+03 0. -1.
       11    1    1    2    0    0  0.37666120984E-03 -0.57951055878E-02  0.37808468358E-02  0.69484635558E-02  0.51109989000E-03 0. -1.
     -623    1    1    2    0    0 -0.37782405890E-01  0.34328101123E-01  0.48798317240E-01  0.17130001456E+03  0.17130000000E+03 0. -1.
      622    1    1    2    0    0  0.37405744680E-01 -0.28532995535E-01  0.39474208033E+01  0.39930369795E+01  0.60000000000E+00 0. -1.
</event>
<event>
 5   0  0.1014700E+04  0.9118800E+02  0.7818608E-02  0.1180000E+00
       11   -1    0    0    0    0  0.00000000000E+00  0.00000000000E+00  0.39999999673E+01  0.40000000000E+01  0.51109989000E-03 0. -1.
     -623   -1    0    0    0    0  0.00000000000E+00  0.00000000000E+00  0.12525980253E-10  0.17130000000E+03  0.17130000000E+03 0. -1.
       11    1    1    2    0    0  0.54275757160E-02 -0.62701167898E-02  0.67504694347E-01  0.68014100905E-01  0.51109989000E-03 0. -1.
     -623    1    1    2    0    0  0.71972055807E-01 -0.27677413902E-01  0.47500845932E-01  0.17130002394E+03  0.17130000000E+03 0. -1.
      622    1    1    2    0    0 -0.77399631523E-01  0.33947530692E-01  0.38849944271E+01  0.39319619576E+01  0.60000000000E+00 0. -1.
</event>
<event>
 5   0  0.1014700E+04  0.9118800E+02  0.7818608E-02  0.1180000E+00
       11   -1    0    0    0    0  0.00000000000E+00  0.00000000000E+00  0.39999999673E+01  0.40000000000E+01  0.51109989000E-03 0. -1.
     -623   -1    0    0    0    0  0.00000000000E+00  0.00000000000E+00  0.12525980253E-10  0.17130000000E+03  0.17130000000E+03 0. -1.
       11    1    1    2    0    0  0.49988442744E-01 -0.67418744664E-02  0.64214571395E-01  0.81658249319E-01  0.51109989000E-03 0. -1.
     -623    1    1    2    0    0 -0.28140555307E-01  0.16362388917E-01  0.63742651823E-01  0.17130001495E+03  0.17130000000E+03 0. -1.
      622    1    1    2    0    0 -0.21847887437E-01 -0.96205144503E-02  0.38720427441E+01  0.39183267981E+01  0.60000000000E+00 0. -1.
</event>
<event>
 5   0  0.1014700E+04  0.9118800E+02  0.7818608E-02  0.1180000E+00
       11   -1    0    0    0    0  0.00000000000E+00  0.00000000000E+00  0.39999999673E+01  0.40000000000E+01  0.51109989000E-03 0. -1.
     -623   -1    0    0    0    0  0.00000000000E+00  0.00000000000E+00  0.12525980253E-10  0.17130000000E+03  0.17130000000E+03 0.  1.
       11    1    1    2    0    0 -0.81698037471E-02 -0.14077625364E-01  0.63180250831E-01  0.65245157271E-01  0.51109989000E-03 0. -1.
     -623    1    1    2    0    0 -0.10114850765E-02  0.41223368381E-01  0.48197586800E-01  0.17130001174E+03  0.17130000000E+03 0.  1.
      622    1    1    2    0    0  0.91812888236E-02 -0.27145743017E-01  0.38886221297E+01  0.39347430990E+01  0.60000000000E+00 0. -1.
</event>
<event>
 5   0  0.1014700E+04  0.9118800E+02  0.7818608E-02  0.1180000E+00
       11   -1    0    0    0    0  0.00000000000E+00  0.00000000000E+00  0.39999999673E+01  0.40000000000E+01  0.51109989000E-03 0. -1.
     -623   -1    0    0    0    0  0.00000000000E+00  0.00000000000E+00  0.12525980253E-10  0.17130000000E+03  0.17130000000E+03 0. -1.
       11    1    1    2    0    0  0.85123473095E-01  0.41948095504E-01  0.16989965997E+00  0.19460679348E+00  0.51109989000E-03 0. -1.
     -623    1    1    2    0    0 -0.55071527592E-01 -0.12142110474E+00  0.73335206824E-01  0.17130006758E+03  0.17130000000E+03 0. -1.
      622    1    1    2    0    0 -0.30051945503E-01  0.79473009232E-01  0.37567651006E+01  0.38053256233E+01  0.60000000000E+00 0. -1.
</event>
<event>
 5   0  0.1014700E+04  0.9118800E+02  0.7818608E-02  0.1180000E+00
       11   -1    0    0    0    0  0.00000000000E+00  0.00000000000E+00  0.39999999673E+01  0.40000000000E+01  0.51109989000E-03 0. -1.
     -623   -1    0    0    0    0  0.00000000000E+00  0.00000000000E+00  0.12525980253E-10  0.17130000000E+03  0.17130000000E+03 0.  1.
       11    1    1    2    0    0 -0.18958739991E-01 -0.10960306657E+00  0.22393405519E+00  0.25003797376E+00  0.51109989000E-03 0. -1.
     -623    1    1    2    0    0 -0.99603554167E-01  0.78823644857E-02  0.77760871858E-01  0.17130004679E+03  0.17130000000E+03 0.  1.
      622    1    1    2    0    0  0.11856229416E+00  0.10172070208E+00  0.36983050403E+01  0.37499152377E+01  0.60000000000E+00 0. -1.
</event>
<event>
 5   0  0.1014700E+04  0.9118800E+02  0.7818608E-02  0.1180000E+00
       11   -1    0    0    0    0  0.00000000000E+00  0.00000000000E+00  0.39999999673E+01  0.40000000000E+01  0.51109989000E-03 0.  1.
     -623   -1    0    0    0    0  0.00000000000E+00  0.00000000000E+00  0.12525980253E-10  0.17130000000E+03  0.17130000000E+03 0.  1.
       11    1    1    2    0    0 -0.86741089562E-01  0.18470003286E+00  0.46609235737E+00  0.50880297324E+00  0.51109989000E-03 0.  1.
     -623    1    1    2    0    0  0.12509763741E+00 -0.13739422207E-01  0.99197346964E-01  0.17130007495E+03  0.17130000000E+03 0.  1.
      622    1    1    2    0    0 -0.38356547851E-01 -0.17096061066E+00  0.34347102630E+01  0.34911220755E+01  0.60000000000E+00 0.  1.
</event>
<event>
 5   0  0.1014700E+04  0.9118800E+02  0.7818608E-02  0.1180000E+00
       11   -1    0    0    0    0  0.00000000000E+00  0.00000000000E+00  0.39999999673E+01  0.40000000000E+01  0.51109989000E-03 0. -1.
     -623   -1    0    0    0    0  0.00000000000E+00  0.00000000000E+00  0.12525980253E-10  0.17130000000E+03  0.17130000000E+03 0. -1.
       11    1    1    2    0    0 -0.28160799584E-01  0.37214373611E-01  0.42678190274E+00  0.42932620926E+00  0.51109989000E-03 0. -1.
     -623    1    1    2    0    0 -0.21457494307E-01 -0.12149870207E+00  0.54728934133E-01  0.17130005317E+03  0.17130000000E+03 0. -1.
      622    1    1    2    0    0  0.49618293891E-01  0.84284328460E-01  0.35184891305E+01  0.35706206162E+01  0.60000000000E+00 0. -1.
</event>
<event>
 5   0  0.1014700E+04  0.9118800E+02  0.7818608E-02  0.1180000E+00
       11   -1    0    0    0    0  0.00000000000E+00  0.00000000000E+00  0.39999999673E+01  0.40000000000E+01  0.51109989000E-03 0.  1.
     -623   -1    0    0    0    0  0.00000000000E+00  0.00000000000E+00  0.12525980253E-10  0.17130000000E+03  0.17130000000E+03 0. -1.
       11    1    1    2    0    0 -0.67122322888E-02 -0.87699016149E-02  0.41509035259E-02  0.11809168457E-01  0.51109989000E-03 0.  1.
     -623    1    1    2    0    0  0.34010426773E-01  0.24064143948E-01  0.53187433805E-01  0.17130001332E+03  0.17130000000E+03 0. -1.
      622    1    1    2    0    0 -0.27298194484E-01 -0.15294242334E-01  0.39426616300E+01  0.39881775079E+01  0.60000000000E+00 0.  1.
</event>
<event>
 5   0  0.1014700E+04  0.9118800E+02  0.7818608E-02  0.1180000E+00
       11   -1    0    0    0    0  0.00000000000E+00  0.00000000000E+00  0.39999999673E+01  0.40000000000E+01  0.51109989000E-03 0.  1.
     -623   -1    0    0    0    0  0.00000000000E+00  0.00000000000E+00  0.12525980253E-10  0.17130000000E+03  0.17130000000E+03 0.  1.
       11    1    1    2    0    0  0.20018122508E-01  0.82200030582E-01  0.53738923385E-01  0.10022825633E+00  0.51109989000E-03 0.  1.
     -623    1    1    2    0    0 -0.14511966886E-01 -0.19493631812E+00  0.94715152147E-01  0.17130013772E+03  0.17130000000E+03 0.  1.
      622    1    1    2    0    0 -0.55061556214E-02  0.11273628754E+00  0.38515458918E+01  0.38996340271E+01  0.60000000000E+00 0.  1.
</event>
<event>
 5   0  0.1014700E+04  0.9118800E+02  0.7818608E-02  0.1180000E+00
       11   -1    0    0    0    0  0.00000000000E+00  0.00000000000E+00  0.39999999673E+01  0.40000000000E+01  0.51109989000E-03 0. -1.
     -623   -1    0    0    0    0  0.00000000000E+00  0.00000000000E+00  0.12525980253E-10  0.17130000000E+03  0.17130000000E+03 0. -1.
       11    1    1    2    0    0  0.49792093492E-02  0.71868994657E-02 -0.21785253028E-02  0.90250343637E-02  0.51109989000E-03 0. -1.
     -623    1    1    2    0    0 -0.23324323651E-01  0.28944554292E-01  0.56784743922E-01  0.17130001345E+03  0.17130000000E+03 0. -1.
      622    1    1    2    0    0  0.18345114302E-01 -0.36131453758E-01  0.39453937487E+01  0.39909615205E+01  0.60000000000E+00 0. -1.
</event>
<event>
 5   0  0.1014700E+04  0.9118800E+02  0.7818608E-02  0.1180000E+00
       11   -1    0    0    0    0  0.00000000000E+00  0.00000000000E+00  0.39999999673E+01  0.40000000000E+01  0.51109989000E-03 0. -1.
     -623   -1    0    0    0    0  0.00000000000E+00  0.00000000000E+00  0.12525980253E-10  0.17130000000E+03  0.17130000000E+03 0. -1.
       11    1    1    2    0    0  0.10268142320E+00 -0.17535719949E+00  0.10412471332E+01  0.10608908878E+01  0.51109989000E-03 0. -1.
     -623    1    1    2    0    0  0.34063588958E-01  0.66078007775E-01  0.86907291446E-01  0.17130003818E+03  0.17130000000E+03 0. -1.
      622    1    1    2    0    0 -0.13674501216E+00  0.10927919172E+00  0.28718455427E+01  0.29390709350E+01  0.60000000000E+00 0.  1.
</event>
<event>
 5   0  0.1014700E+04  0.9118800E+02  0.7818608E-02  0.1180000E+00
       11   -1    0    0    0    0  0.00000000000E+00  0.00000000000E+00  0.39999999673E+01  0.40000000000E+01  0.51109989000E-03 0.  1.
     -623   -1    0    0    0    0  0.00000000000E+00  0.00000000000E+00  0.12525980253E-10  0.17130000000E+03  0.17130000000E+03 0. -1.
       11    1    1    2    0    0  0.55442827199E-01  0.68792089420E-02  0.34655560521E+00  0.35103031112E+00  0.51109989000E-03 0.  1.
     -623    1    1    2    0    0 -0.31153280676E-01 -0.58623030482E-01  0.54617475349E-01  0.17130002157E+03  0.17130000000E+03 0. -1.
      622    1    1    2    0    0 -0.24289546523E-01  0.51743821540E-01  0.35988268868E+01  0.36489481178E+01  0.60000000000E+00 0.  1.
</event>
<event>
 5   0  0.1014700E+04  0.9118800E+02  0.7818608E-02  0.1180000E+00
       11   -1    0    0    0    0  0.00000000000E+00  0.00000000000E+00  0.39999999673E+01  0.40000000000E+01  0.51109989000E-03 0. -1.
     -623   -1    0    0    0    0  0.00000000000E+00  0.00000000000E+00  0.12525980253E-10  0.17130000000E+03  0.17130000000E+03 0.  1.
       11    1    1    2    0    0  0.62873730734E-01  0.15835257985E-01  0.13853818368E-01  0.66302721802E-01  0.51109989000E-03 0. -1.
     -623    1    1    2    0    0  0.58647971453E-01 -0.21081726277E+00  0.10544596954E+00  0.17130017222E+03  0.17130000000E+03 0.  1.
      622    1    1    2    0    0 -0.12152170219E+00  0.19498200479E+00  0.38807001795E+01  0.39335250589E+01  0.60000000000E+00 0. -1.
</event>
<event>
 5   0  0.1014700E+04  0.9118800E+02  0.7818608E-02  0.1180000E+00
       11   -1    0    0    0    0  0.00000000000E+00  0.00000000000E+00  0.39999999673E+01  0.40000000000E+01  0.51109989000E-03 0.  1.
     -623   -1    0    0    0    0  0.00000000000E+00  0.00000000000E+00  0.12525980253E-10  0.17130000000E+03  0.17130000000E+03 0.  1.
       11    1    1    2    0    0  0.25208544777E-01  0.70734232335E-02  0.70699368135E-01  0.75393407695E-01  0.51109989000E-03 0.  1.
     -623    1    1    2    0    0 -0.50645779533E-01  0.41398681307E-01  0.51236374504E-01  0.17130002015E+03  0.17130000000E+03 0.  1.
      622    1    1    2    0    0  0.25437234755E-01 -0.48472104540E-01  0.38780642247E+01  0.39245864405E+01  0.60000000000E+00 0.  1.
</event>
<event>
 5   0  0.1014700E+04  0.9118800E+02  0.7818608E-02  0.1180000E+00
       11   -1    0    0    0    0  0.00000000000E+00  0.00000000000E+00  0.39999999673E+01  0.40000000000E+01  0.51109989000E-03 0.  1.
     -623   -1    0    0    0    0  0.00000000000E+00  0.00000000000E+00  0.12525980253E-10  0.17130000000E+03  0.17130000000E+03 0.  1.
       11    1    1    2    0    0  0.39274169994E-01 -0.84137068419E-01  0.40573938515E+00  0.41622856293E+00  0.51109989000E-03 0.  1.
     -623    1    1    2    0    0  0.58889978903E-02  0.14557017379E+00  0.61969600039E-01  0.17130007316E+03  0.17130000000E+03 0.  1.
      622    1    1    2    0    0 -0.45163167884E-01 -0.61433105370E-01  0.35322909822E+01  0.35836982743E+01  0.60000000000E+00 0.  1.
</event>
<event>
 5   0  0.1014700E+04  0.9118800E+02  0.7818608E-02  0.1180000E+00
       11   -1    0    0    0    0  0.00000000000E+00  0.00000000000E+00  0.39999999673E+01  0.40000000000E+01  0.51109989000E-03 0.  1.
     -623   -1    0    0    0    0  0.00000000000E+00  0.00000000000E+00  0.12525980253E-10  0.17130000000E+03  0.17130000000E+03 0.  1.
       11    1    1    2    0    0  0.95502525542E-02  0.22471591611E-01  0.23403671363E-01  0.33825623568E-01  0.51109989000E-03 0.  1.
     -623    1    1    2    0    0 -0.26214215211E-01 -0.18192376083E-01  0.56118430343E-01  0.17130001216E+03  0.17130000000E+03 0.  1.
      622    1    1    2    0    0  0.16663962657E-01 -0.42792155276E-02  0.39204778657E+01  0.39661622123E+01  0.60000000000E+00 0.  1.
</event>
<event>
 5   0  0.1014700E+04  0.9118800E+02  0.7818608E-02  0.1180000E+00
       11   -1    0    0    0    0  0.00000000000E+00  0.00000000000E+00  0.39999999673E+01  0.40000000000E+01  0.51109989000E-03 0.  1.
     -623   -1    0    0    0    0  0.00000000000E+00  0.00000000000E+00  0.12525980253E-10  0.17130000000E+03  0.17130000000E+03 0.  1.
       11    1    1    2    0    0  0.12891421919E+00 -0.13757070301E+00  0.32249221681E-02  0.18856095985E+00  0.51109989000E-03 0.  1.
     -623    1    1    2    0    0  0.10876557004E+00 -0.11167129119E+00  0.24890428779E+00  0.17130025176E+03  0.17130000000E+03 0.  1.
      622    1    1    2    0    0 -0.23767978923E+00  0.24924199420E+00  0.37478707574E+01  0.38111872780E+01  0.60000000000E+00 0.  1.
</event>
<event>
 5   0  0.1014700E+04  0.9118800E+02  0.7818608E-02  0.1180000E+00
       11   -1    0    0    0    0  0.00000000000E+00  0.00000000000E+00  0.39999999673E+01  0.40000000000E+01  0.51109989000E-03 0.  1.
     -623   -1    0    0    0    0  0.00000000000E+00  0.00000000000E+00  0.12525980253E-10  0.17130000000E+03  0.17130000000E+03 0.  1.
       11    1    1    2    0    0  0.26015981580E-01  0.30341843165E-01  0.18897626043E+00  0.19315731146E+00  0.51109989000E-03 0.  1.
     -623    1    1    2    0    0 -0.51165007926E-01  0.33200920115E-01  0.52401964719E-01  0.17130001887E+03  0.17130000000E+03 0.  1.
      622    1    1    2    0    0  0.25149026345E-01 -0.63542763280E-01  0.37586217422E+01  0.38068238149E+01  0.60000000000E+00 0.  1.
</event>
<event>
 5   0  0.1014700E+04  0.9118800E+02  0.7818608E-02  0.1180000E+00
       11   -1    0    0    0    0  0.00000000000E+00  0.00000000000E+00  0.39999999673E+01  0.40000000000E+01  0.51109989000E-03 0. -1.
     -623   -1    0    0    0    0  0.00000000000E+00  0.00000000000E+00  0.12525980253E-10  0.17130000000E+03  0.17130000000E+03 0.  1.
       11    1    1    2    0    0 -0.47302712787E-01 -0.74754522134E-01  0.19949014606E+00  0.21822549075E+00  0.51109989000E-03 0. -1.
     -623    1    1    2    0    0 -0.67285873697E-02  0.69171539283E-01  0.67058069582E-01  0.17130002722E+03  0.17130000000E+03 0.  1.
      622    1    1    2    0    0  0.54031300157E-01  0.55829828502E-02  0.37334517517E+01  0.37817472858E+01  0.60000000000E+00 0. -1.
</event>
<event>
 5   0  0.1014700E+04  0.9118800E+02  0.7818608E-02  0.1180000E+00
       11   -1    0    0    0    0  0.00000000000E+00  0.00000000000E+00  0.39999999673E+01  0.40000000000E+01  0.51109989000E-03 0.  1.
     -623   -1    0    0    0    0  0.00000000000E+00  0.00000000000E+00  0.12525980253E-10  0.17130000000E+03  0.17130000000E+03 0. -1.
       11    1    1    2    0    0  0.76130246343E-02  0.17784740202E-01  0.15921262889E+00  0.16038446791E+00  0.51109989000E-03 0.  1.
     -623    1    1    2    0    0  0.18499017432E-01  0.34280593215E-01  0.48800075001E-01  0.17130001138E+03  0.17130000000E+03 0. -1.
      622    1    1    2    0    0 -0.26112042066E-01 -0.52065333417E-01  0.37919872635E+01  0.38396041520E+01  0.60000000000E+00 0.  1.
</event>
<event>
 5   0  0.1014700E+04  0.9118800E+02  0.7818608E-02  0.1180000E+00
       11   -1    0    0    0    0  0.00000000000E+00  0.00000000000E+00  0.39999999673E+01  0.40000000000E+01  0.51109989000E-03 0. -1.
     -623   -1    0    0    0    0  0.00000000000E+00  0.00000000000E+00  0.12525980253E-10  0.17130000000E+03  0.17130000000E+03 0.  1.
       11    1    1    2    0    0  0.26976855286E-02  0.40913387696E-01  0.20452892208E-02  0.41056390845E-01  0.51109989000E-03 0. -1.
     -623    1    1    2    0    0  0.66743963572E-01 -0.96359869981E-01  0.85813280711E-01  0.17130006160E+03  0.17130000000E+03 0.  1.
      622    1    1    2    0    0 -0.69441649101E-01  0.55446482285E-01  0.39121413974E+01  0.39588820099E+01  0.60000000000E+00 0. -1.
</event>
<event>
 5   0  0.1014700E+04  0.9118800E+02  0.7818608E-02  0.1180000E+00
       11   -1    0    0    0    0  0.00000000000E+00  0.00000000000E+00  0.39999999673E+01  0.40000000000E+01  0.51109989000E-03 0. -1.
     -623   -1    0    0    0    0  0.00000000000E+00  0.00000000000E+00  0.12525980253E-10  0.17130000000E+03  0.17130000000E+03 0. -1.
       11    1    1    2    0    0 -0.46701116678E-01 -0.33461166127E-01  0.31707358841E+00  0.32223681607E+00  0.51109989000E-03 0. -1.
     -623    1    1    2    0    0 -0.12271781279E-01  0.22924041494E-01  0.54941555425E-01  0.17130001078E+03  0.17130000000E+03 0. -1.
      622    1    1    2    0    0  0.58972897957E-01  0.10537124633E-01  0.36279848235E+01  0.36777523997E+01  0.60000000000E+00 0. -1.
</event>
<event>
 5   0  0.1014700E+04  0.9118800E+02  0.7818608E-02  0.1180000E+00
       11   -1    0    0    0    0  0.00000000000E+00  0.00000000000E+00  0.39999999673E+01  0.40000000000E+01  0.51109989000E-03 0.  1.
     -623   -1    0    0    0    0  0.00000000000E+00  0.00000000000E+00  0.12525980253E-10  0.17130000000E+03  0.17130000000E+03 0.  1.
       11    1    1    2    0    0  0.89677891940E-04  0.93519709868E-02  0.34952297968E-02  0.99972623586E-02  0.51109989000E-03 0.  1.
     -623    1    1    2    0    0  0.18593665374E-01 -0.26463359166E-01  0.51965129900E-01  0.17130001094E+03  0.17130000000E+03 0.  1.
      622    1    1    2    0    0 -0.18683343266E-01  0.17111388179E-01  0.39445396077E+01  0.39899918024E+01  0.60000000000E+00 0.  1.
</event>
<event>
 5   0  0.1014700E+04  0.9118800E+02  0.7818608E-02  0.1180000E+00
       11   -1    0    0    0    0  0.00000000000E+00  0.00000000000E+00  0.39999999673E+01  0.40000000000E+01  0.51109989000E-03 0.  1.
     -623   -1    0    0    0    0  0.00000000000E+00  0.00000000000E+00  0.12525980253E-10  0.17130000000E+03  0.17130000000E+03 0.  1.
       11    1    1    2    0    0 -0.25085075631E-01 -0.60071301746E-01  0.25572127705E+00  0.26387772750E+00  0.51109989000E-03 0.  1.
     -623    1    1    2    0    0 -0.20014680214E+00  0.11699386153E-01  0.63983261979E-01  0.17130012927E+03  0.17130000000E+03 0.  1.
      622    1    1    2    0    0  0.22523187777E+00  0.48371915594E-01  0.36802954283E+01  0.37359929980E+01  0.60000000000E+00 0.  1.
</event>
<event>
 5   0  0.1014700E+04  0.9118800E+02  0.7818608E-02  0.1180000E+00
       11   -1    0    0    0    0  0.00000000000E+00  0.00000000000E+00  0.39999999673E+01  0.40000000000E+01  0.51109989000E-03 0. -1.
     -623   -1    0    0    0    0  0.00000000000E+00  0.00000000000E+00  0.12525980253E-10  0.17130000000E+03  0.17130000000E+03 0. -1.
       11    1    1    2    0    0  0.52738348989E-02  0.16019865501E+00  0.22759456146E+00  0.27837199577E+00  0.51109989000E-03 0. -1.
     -623    1    1    2    0    0 -0.13478964979E+00 -0.17446177574E+00  0.10194828755E+00  0.17130017221E+03  0.17130000000E+03 0. -1.
      622    1    1    2    0    0  0.12951581489E+00  0.14263120726E-01  0.36704571184E+01  0.37214557959E+01  0.60000000000E+00 0. -1.
</event>
<event>
 5   0  0.1014700E+04  0.9118800E+02  0.7818608E-02  0.1180000E+00
       11   -1    0    0    0    0  0.00000000000E+00  0.00000000000E+00  0.39999999673E+01  0.40000000000E+01  0.51109989000E-03 0.  1.
     -623   -1    0    0    0    0  0.00000000000E+00  0.00000000000E+00  0.12525980253E-10  0.17130000000E+03  0.17130000000E+03 0. -1.
       11    1    1    2    0    0  0.39482819593E-01  0.12568663697E-01  0.65192651222E-01  0.77247701216E-01  0.51109989000E-03 0.  1.
     -623    1    1    2    0    0 -0.61407985480E-01  0.41591311211E-02  0.58332062006E-01  0.17130002099E+03  0.17130000000E+03 0. -1.
      622    1    1    2    0    0  0.21925165887E-01 -0.16727794818E-01  0.38764752541E+01  0.39227313097E+01  0.60000000000E+00 0.  1.
</event>
<event>
 5   0  0.1014700E+04  0.9118800E+02  0.7818608E-02  0.1180000E+00
       11   -1    0    0    0    0  0.00000000000E+00  0.00000000000E+00  0.39999999673E+01  0.40000000000E+01  0.51109989000E-03 0.  1.
     -623   -1    0    0    0    0  0.00000000000E+00  0.00000000000E+00  0.12525980253E-10  0.17130000000E+03  0.17130000000E+03 0.  1.
       11    1    1    2    0    0  0.18855993624E-01  0.99453228093E-02  0.45393398752E-01  0.50152565384E-01  0.51109989000E-03 0.  1.
     -623    1    1    2    0    0 -0.13601066423E-02 -0.33096589329E-01  0.50715168538E-01  0.17130001071E+03  0.17130000000E+03 0.  1.
      622    1    1    2    0    0 -0.17495886982E-01  0.23151266520E-01  0.39038914001E+01  0.39498367246E+01  0.60000000000E+00 0.  1.
</event>
<event>
 5   0  0.1014700E+04  0.9118800E+02  0.7818608E-02  0.1180000E+00
       11   -1    0    0    0    0  0.00000000000E+00  0.00000000000E+00  0.39999999673E+01  0.40000000000E+01  0.51109989000E-03 0. -1.
     -623   -1    0    0    0    0  0.00000000000E+00  0.00000000000E+00  0.12525980253E-10  0.17130000000E+03  0.17130000000E+03 0.  1.
       11    1    1    2    0    0 -0.42631053316E-02 -0.40111878154E-02 -0.18481973466E-01  0.19393510784E-01  0.51109989000E-03 0. -1.
     -623    1    1    2    0    0  0.60598752227E-02 -0.11847805243E-02  0.83378973846E-01  0.17130002040E+03  0.17130000000E+03 0.  1.
      622    1    1    2    0    0 -0.17967698912E-02  0.51959683397E-02  0.39351029670E+01  0.39805860859E+01  0.60000000000E+00 0. -1.
</event>
<event>
 5   0  0.1014700E+04  0.9118800E+02  0.7818608E-02  0.1180000E+00
       11   -1    0    0    0    0  0.00000000000E+00  0.00000000000E+00  0.39999999673E+01  0.40000000000E+01  0.51109989000E-03 0. -1.
     -623   -1    0    0    0    0  0.00000000000E+00  0.00000000000E+00  0.12525980253E-10  0.17130000000E+03  0.17130000000E+03 0.  1.
       11    1    1    2    0    0  0.92961035095E-02  0.68922345256E-01  0.10106737397E-01  0.70278834509E-01  0.51109989000E-03 0. -1.
     -623    1    1    2    0    0 -0.24315661495E-01 -0.76150298640E-01  0.10633498711E+00  0.17130005166E+03  0.17130000000E+03 0.  1.
      622    1    1    2    0    0  0.15019557986E-01  0.72279533844E-02  0.38835582429E+01  0.39296695098E+01  0.60000000000E+00 0. -1.
</event>
<event>
 5   0  0.1014700E+04  0.9118800E+02  0.7818608E-02  0.1180000E+00
       11   -1    0    0    0    0  0.00000000000E+00  0.00000000000E+00  0.39999999673E+01  0.40000000000E+01  0.51109989000E-03 0.  1.
     -623   -1    0    0    0    0  0.00000000000E+00  0.00000000000E+00  0.12525980253E-10  0.17130000000E+03  0.17130000000E+03 0. -1.
       11    1    1    2    0    0  0.39456164959E-01 -0.20414536346E-01  0.29896550492E+00  0.30224853450E+00  0.51109989000E-03 0.  1.
     -623    1    1    2    0    0 -0.41034068291E-01  0.70634065522E-02  0.52323918257E-01  0.17130001305E+03  0.17130000000E+03 0. -1.
      622    1    1    2    0    0  0.15779033315E-02  0.13351129794E-01  0.36487105442E+01  0.36977384139E+01  0.60000000000E+00 0.  1.
</event>
<event>
 5   0  0.1014700E+04  0.9118800E+02  0.7818608E-02  0.1180000E+00
       11   -1    0    0    0    0  0.00000000000E+00  0.00000000000E+00  0.39999999673E+01  0.40000000000E+01  0.51109989000E-03 0.  1.
     -623   -1    0    0    0    0  0.00000000000E+00  0.00000000000E+00  0.12525980253E-10  0.17130000000E+03  0.17130000000E+03 0.  1.
       11    1    1    2    0    0 -0.11178293941E+00 -0.30604273435E-01  0.37971569092E+00  0.39700921180E+00  0.51109989000E-03 0.  1.
     -623    1    1    2    0    0 -0.75844147352E-01 -0.10386226137E-01  0.72831154968E-01  0.17130003259E+03  0.17130000000E+03 0.  1.
      622    1    1    2    0    0  0.18762708676E+00  0.40990499572E-01  0.35474531215E+01  0.36029582004E+01  0.60000000000E+00 0.  0.
</event>
<event>
 5   0  0.1014700E+04  0.9118800E+02  0.7818608E-02  0.1180000E+00
       11   -1    0    0    0    0  0.00000000000E+00  0.00000000000E+00  0.39999999673E+01  0.40000000000E+01  0.51109989000E-03 0. -1.
     -623   -1    0    0    0    0  0.00000000000E+00  0.00000000000E+00  0.12525980253E-10  0.17130000000E+03  0.17130000000E+03 0. -1.
       11    1    1    2    0    0  0.92807984625E-02 -0.25062750634E-01  0.88596271988E-01  0.92540992661E-01  0.51109989000E-03 0. -1.
     -623    1    1    2    0    0 -0.44512797114E-01  0.26713531260E-01  0.50461800445E-01  0.17130001530E+03  0.17130000000E+03 0. -1.
      622    1    1    2    0    0  0.35231998651E-01 -0.16507806256E-02  0.38609418949E+01  0.39074437085E+01  0.60000000000E+00 0. -1.
</event>
<event>
 5   0  0.1014700E+04  0.9118800E+02  0.7818608E-02  0.1180000E+00
       11   -1    0    0    0    0  0.00000000000E+00  0.00000000000E+00  0.39999999673E+01  0.40000000000E+01  0.51109989000E-03 0.  1.
     -623   -1    0    0    0    0  0.00000000000E+00  0.00000000000E+00  0.12525980253E-10  0.17130000000E+03  0.17130000000E+03 0.  1.
       11    1    1    2    0    0  0.87981958851E-01 -0.68853275135E-01  0.70341135972E+00  0.71222847513E+00  0.51109989000E-03 0.  1.
     -623    1    1    2    0    0 -0.13016074495E+00 -0.33104269626E-01  0.65979150885E-01  0.17130006536E+03  0.17130000000E+03 0.  1.
      622    1    1    2    0    0  0.42178786100E-01  0.10195754476E+00  0.32306094568E+01  0.32877061689E+01  0.60000000000E+00 0.  1.
</event>
<event>
 5   0  0.1014700E+04  0.9118800E+02  0.7818608E-02  0.1180000E+00
       11   -1    0    0    0    0  0.00000000000E+00  0.00000000000E+00  0.39999999673E+01  0.40000000000E+01  0.51109989000E-03 0.  1.
     -623   -1    0    0    0    0  0.00000000000E+00  0.00000000000E+00  0.12525980253E-10  0.17130000000E+03  0.17130000000E+03 0. -1.
       11    1    1    2    0    0 -0.17394145098E-01 -0.13517694240E-01  0.10479759058E+00  0.10708912435E+00  0.51109989000E-03 0.  1.
     -623    1    1    2    0    0  0.33563362262E-01 -0.13584560659E-01  0.48947722221E-01  0.17130001082E+03  0.17130000000E+03 0. -1.
      622    1    1    2    0    0 -0.16169217164E-01  0.27102254899E-01  0.38462546546E+01  0.38929000557E+01  0.60000000000E+00 0.  1.
</event>
<event>
 5   0  0.1014700E+04  0.9118800E+02  0.7818608E-02  0.1180000E+00
       11   -1    0    0    0    0  0.00000000000E+00  0.00000000000E+00  0.39999999673E+01  0.40000000000E+01  0.51109989000E-03 0.  1.
     -623   -1    0    0    0    0  0.00000000000E+00  0.00000000000E+00  0.12525980253E-10  0.17130000000E+03  0.17130000000E+03 0.  1.
       11    1    1    2    0    0 -0.32282179463E-01  0.90425508066E-01  0.91523996713E-01  0.13264921718E+00  0.51109989000E-03 0.  1.
     -623    1    1    2    0    0  0.40220403972E-02 -0.63151340731E-01  0.88188864005E-01  0.17130003439E+03  0.17130000000E+03 0.  1.
      622    1    1    2    0    0  0.28260139066E-01 -0.27274167335E-01  0.38202871066E+01  0.38673163942E+01  0.60000000000E+00 0.  1.
</event>
<event>
 5   0  0.1014700E+04  0.9118800E+02  0.7818608E-02  0.1180000E+00
       11   -1    0    0    0    0  0.00000000000E+00  0.00000000000E+00  0.39999999673E+01  0.40000000000E+01  0.51109989000E-03 0.  1.
     -623   -1    0    0    0    0  0.00000000000E+00  0.00000000000E+00  0.12525980253E-10  0.17130000000E+03  0.17130000000E+03 0. -1.
       11    1    1    2    0    0  0.71942858768E-02 -0.11304013817E+00  0.96921000846E-01  0.14907639724E+00  0.51109989000E-03 0.  1.
     -623    1    1    2    0    0 -0.99689605123E-01  0.52191876419E-01  0.10086364531E+00  0.17130006665E+03  0.17130000000E+03 0. -1.
      622    1    1    2    0    0  0.92495319246E-01  0.60848261747E-01  0.38022153212E+01  0.38508569493E+01  0.60000000000E+00 0.  1.
</event>
<event>
 5   0  0.1014700E+04  0.9118800E+02  0.7818608E-02  0.1180000E+00
       11   -1    0    0    0    0  0.00000000000E+00  0.00000000000E+00  0.39999999673E+01  0.40000000000E+01  0.51109989000E-03 0. -1.
     -623   -1    0    0    0    0  0.00000000000E+00  0.00000000000E+00  0.12525980253E-10  0.17130000000E+03  0.17130000000E+03 0.  1.
       11    1    1    2    0    0 -0.36483080495E-01  0.27511359782E-02  0.11384538187E-01  0.38320397237E-01  0.51109989000E-03 0. -1.
     -623    1    1    2    0    0 -0.28582375389E-02 -0.76263516443E-01  0.73555577808E-01  0.17130003279E+03  0.17130000000E+03 0.  1.
      622    1    1    2    0    0  0.39341318034E-01  0.73512380465E-01  0.39150598514E+01  0.39616468103E+01  0.60000000000E+00 0. -1.
</event>
<event>
 5   0  0.1014700E+04  0.9118800E+02  0.7818608E-02  0.1180000E+00
       11   -1    0    0    0    0  0.00000000000E+00  0.00000000000E+00  0.39999999673E+01  0.40000000000E+01  0.51109989000E-03 0.  1.
     -623   -1    0    0    0    0  0.00000000000E+00  0.00000000000E+00  0.12525980253E-10  0.17130000000E+03  0.17130000000E+03 0. -1.
       11    1    1    2    0    0  0.67660022200E-02  0.21070643460E-01  0.63343872145E-02  0.23024692969E-01  0.51109989000E-03 0.  1.
     -623    1    1    2    0    0  0.13176853587E-01 -0.11706502737E-01  0.62285427069E-01  0.17130001223E+03  0.17130000000E+03 0. -1.
      622    1    1    2    0    0 -0.19942855807E-01 -0.93641407224E-02  0.39313801531E+01  0.39769630766E+01  0.60000000000E+00 0.  1.
</event>
<event>
 5   0  0.1014700E+04  0.9118800E+02  0.7818608E-02  0.1180000E+00
       11   -1    0    0    0    0  0.00000000000E+00  0.00000000000E+00  0.39999999673E+01  0.40000000000E+01  0.51109989000E-03 0.  1.
     -623   -1    0    0    0    0  0.00000000000E+00  0.00000000000E+00  0.12525980253E-10  0.17130000000E+03  0.17130000000E+03 0. -1.
       11    1    1    2    0    0  0.88187930991E-02 -0.44820416049E-01  0.53235903602E+00  0.53431549225E+00  0.51109989000E-03 0.  1.
     -623    1    1    2    0    0  0.31389678530E-01  0.10821985323E+00  0.55161706498E-01  0.17130004594E+03  0.17130000000E+03 0. -1.
      622    1    1    2    0    0 -0.40208471629E-01 -0.63399437185E-01  0.34124792248E+01  0.34656385660E+01  0.60000000000E+00 0.  1.
</event>
<event>
 5   0  0.1014700E+04  0.9118800E+02  0.7818608E-02  0.1180000E+00
       11   -1    0    0    0    0  0.00000000000E+00  0.00000000000E+00  0.39999999673E+01  0.40000000000E+01  0.51109989000E-03 0. -1.
     -623   -1    0    0    0    0  0.00000000000E+00  0.00000000000E+00  0.12525980253E-10  0.17130000000E+03  0.17130000000E+03 0. -1.
       11    1    1    2    0    0 -0.61822867262E-01  0.21980336391E-01  0.73538096245E-01  0.98556151136E-01  0.51109989000E-03 0. -1.
     -623    1    1    2    0    0 -0.15727882746E+00 -0.61274912046E-01  0.77965131453E-01  0.17130010090E+03  0.17130000000E+03 0. -1.
      622    1    1    2    0    0  0.21910169473E+00  0.39294575655E-01  0.38484967397E+01  0.39013429446E+01  0.60000000000E+00 0. -1.
</event>
<event>
 5   0  0.1014700E+04  0.9118800E+02  0.7818608E-02  0.1180000E+00
       11   -1    0    0    0    0  0.00000000000E+00  0.00000000000E+00  0.39999999673E+01  0.40000000000E+01  0.51109989000E-03 0. -1.
     -623   -1    0    0    0    0  0.00000000000E+00  0.00000000000E+00  0.12525980253E-10  0.17130000000E+03  0.17130000000E+03 0.  1.
       11    1    1    2    0    0 -0.64170670430E-01 -0.21550799451E-01  0.48992013447E-01  0.83563092954E-01  0.51109989000E-03 0. -1.
     -623    1    1    2    0    0  0.26101021040E-01  0.67740883583E-01  0.81302072254E-01  0.17130003468E+03  0.17130000000E+03 0.  1.
      622    1    1    2    0    0  0.38069649390E-01 -0.46190084132E-01  0.38697058817E+01  0.39164022307E+01  0.60000000000E+00 0. -1.
</event>
<event>
 5   0  0.1014700E+04  0.9118800E+02  0.7818608E-02  0.1180000E+00
       11   -1    0    0    0    0  0.00000000000E+00  0.00000000000E+00  0.39999999673E+01  0.40000000000E+01  0.51109989000E-03 0.  1.
     -623   -1    0    0    0    0  0.00000000000E+00  0.00000000000E+00  0.12525980253E-10  0.17130000000E+03  0.17130000000E+03 0.  1.
       11    1    1    2    0    0 -0.74796006974E-01  0.13821565081E-01 -0.28033807304E-01  0.81065614755E-01  0.51109989000E-03 0.  1.
     -623    1    1    2    0    0  0.28287736486E-01  0.76635957452E-01  0.15673082925E+00  0.17130009118E+03  0.17130000000E+03 0.  1.
      622    1    1    2    0    0  0.46508270488E-01 -0.90457522533E-01  0.38713029454E+01  0.39188432066E+01  0.60000000000E+00 0.  1.
</event>
<event>
 5   0  0.1014700E+04  0.9118800E+02  0.7818608E-02  0.1180000E+00
       11   -1    0    0    0    0  0.00000000000E+00  0.00000000000E+00  0.39999999673E+01  0.40000000000E+01  0.51109989000E-03 0. -1.
     -623   -1    0    0    0    0  0.00000000000E+00  0.00000000000E+00  0.12525980253E-10  0.17130000000E+03  0.17130000000E+03 0.  1.
       11    1    1    2    0    0  0.56892748573E-01  0.23105474097E-01  0.16461157890E+00  0.17569257498E+00  0.51109989000E-03 0. -1.
     -623    1    1    2    0    0 -0.44695425938E-01 -0.33785549923E-01  0.58495754385E-01  0.17130001915E+03  0.17130000000E+03 0.  1.
      622    1    1    2    0    0 -0.12197322635E-01  0.10680075826E-01  0.37768926341E+01  0.38242882747E+01  0.60000000000E+00 0. -1.
</event>
<event>
 5   0  0.1014700E+04  0.9118800E+02  0.7818608E-02  0.1180000E+00
       11   -1    0    0    0    0  0.00000000000E+00  0.00000000000E+00  0.39999999673E+01  0.40000000000E+01  0.51109989000E-03 0. -1.
     -623   -1    0    0    0    0  0.00000000000E+00  0.00000000000E+00  0.12525980253E-10  0.17130000000E+03  0.17130000000E+03 0. -1.
       11    1    1    2    0    0  0.16296134471E-01 -0.19679026189E-01  0.42721887204E-01  0.49782014220E-01  0.51109989000E-03 0. -1.
     -623    1    1    2    0    0 -0.57504685104E-01 -0.47080800313E-02  0.53204923136E-01  0.17130001798E+03  0.17130000000E+03 0. -1.
      622    1    1    2    0    0  0.41208550633E-01  0.24387106220E-01  0.39040731570E+01  0.39502000065E+01  0.60000000000E+00 0. -1.
</event>
<event>
 5   0  0.1014700E+04  0.9118800E+02  0.7818608E-02  0.1180000E+00
       11   -1    0    0    0    0  0.00000000000E+00  0.00000000000E+00  0.39999999673E+01  0.40000000000E+01  0.51109989000E-03 0. -1.
     -623   -1    0    0    0    0  0.00000000000E+00  0.00000000000E+00  0.12525980253E-10  0.17130000000E+03  0.17130000000E+03 0. -1.
       11    1    1    2    0    0  0.10226216045E-01  0.45397244625E-02  0.32237113293E-01  0.34127368610E-01  0.51109989000E-03 0. -1.
     -623    1    1    2    0    0 -0.44721347797E-01 -0.53974076339E-02  0.47704765978E-01  0.17130001257E+03  0.17130000000E+03 0. -1.
      622    1    1    2    0    0  0.34495131753E-01  0.85768317138E-03  0.39200580881E+01  0.39658600661E+01  0.60000000000E+00 0. -1.
</event>
<event>
 5   0  0.1014700E+04  0.9118800E+02  0.7818608E-02  0.1180000E+00
       11   -1    0    0    0    0  0.00000000000E+00  0.00000000000E+00  0.39999999673E+01  0.40000000000E+01  0.51109989000E-03 0.  1.
     -623   -1    0    0    0    0  0.00000000000E+00  0.00000000000E+00  0.12525980253E-10  0.17130000000E+03  0.17130000000E+03 0.  1.
       11    1    1    2    0    0 -0.77545634007E-01 -0.80997700714E-01  0.36214399053E+00  0.37910748341E+00  0.51109989000E-03 0.  1.
     -623    1    1    2    0    0  0.88981703993E-01  0.64998575535E-01  0.67124405092E-01  0.17130004859E+03  0.17130000000E+03 0.  1.
      622    1    1    2    0    0 -0.11436069986E-01  0.15999125179E-01  0.35707315717E+01  0.36208439228E+01  0.60000000000E+00 0.  1.
</event>
<event>
 5   0  0.1014700E+04  0.9118800E+02  0.7818608E-02  0.1180000E+00
       11   -1    0    0    0    0  0.00000000000E+00  0.00000000000E+00  0.39999999673E+01  0.40000000000E+01  0.51109989000E-03 0.  1.
     -623   -1    0    0    0    0  0.00000000000E+00  0.00000000000E+00  0.12525980253E-10  0.17130000000E+03  0.17130000000E+03 0. -1.
       11    1    1    2    0    0 -0.40345806223E-02 -0.51322132241E-01  0.11661606641E+00  0.12747473187E+00  0.51109989000E-03 0.  1.
     -623    1    1    2    0    0  0.22163420644E-01  0.30034804059E-01  0.57738427989E-01  0.17130001380E+03  0.17130000000E+03 0. -1.
      622    1    1    2    0    0 -0.18128840022E-01  0.21287328182E-01  0.38256454730E+01  0.38725114706E+01  0.60000000000E+00 0.  1.
</event>
<event>
 5   0  0.1014700E+04  0.9118800E+02  0.7818608E-02  0.1180000E+00
       11   -1    0    0    0    0  0.00000000000E+00  0.00000000000E+00  0.39999999673E+01  0.40000000000E+01  0.51109989000E-03 0.  1.
     -623   -1    0    0    0    0  0.00000000000E+00  0.00000000000E+00  0.12525980253E-10  0.17130000000E+03  0.17130000000E+03 0. -1.
       11    1    1    2    0    0 -0.14696234566E-01 -0.28205642609E-01 -0.10163339621E-02  0.31825017569E-01  0.51109989000E-03 0.  1.
     -623    1    1    2    0    0 -0.15104273897E-01  0.23093463451E-01  0.78601518358E-01  0.17130002026E+03  0.17130000000E+03 0. -1.
      622    1    1    2    0    0  0.29800508463E-01  0.51121791578E-02  0.39224147830E+01  0.39681547266E+01  0.60000000000E+00 0.  1.
</event>
<event>
 5   0  0.1014700E+04  0.9118800E+02  0.7818608E-02  0.1180000E+00
       11   -1    0    0    0    0  0.00000000000E+00  0.00000000000E+00  0.39999999673E+01  0.40000000000E+01  0.51109989000E-03 0.  1.
     -623   -1    0    0    0    0  0.00000000000E+00  0.00000000000E+00  0.12525980253E-10  0.17130000000E+03  0.17130000000E+03 0. -1.
       11    1    1    2    0    0  0.49344586233E-01 -0.10381153908E-01  0.31517905655E-01  0.59466765051E-01  0.51109989000E-03 0.  1.
     -623    1    1    2    0    0 -0.43629041309E-01  0.41371070483E-02  0.73926808489E-01  0.17130002156E+03  0.17130000000E+03 0. -1.
      622    1    1    2    0    0 -0.57155449243E-02  0.62440468600E-02  0.38945552532E+01  0.39405116769E+01  0.60000000000E+00 0.  1.
</event>
<event>
 5   0  0.1014700E+04  0.9118800E+02  0.7818608E-02  0.1180000E+00
       11   -1    0    0    0    0  0.00000000000E+00  0.00000000000E+00  0.39999999673E+01  0.40000000000E+01  0.51109989000E-03 0.  1.
     -623   -1    0    0    0    0  0.00000000000E+00  0.00000000000E+00  0.12525980253E-10  0.17130000000E+03  0.17130000000E+03 0.  1.
       11    1    1    2    0    0 -0.41161745893E-01 -0.20545685665E-01  0.28399488375E-01  0.54066687410E-01  0.51109989000E-03 0.  1.
     -623    1    1    2    0    0  0.45852841597E-01  0.13535612098E-02  0.71621924337E-01  0.17130002112E+03  0.17130000000E+03 0.  1.
      622    1    1    2    0    0 -0.46910957040E-02  0.19192124455E-01  0.38999785547E+01  0.39459121976E+01  0.60000000000E+00 0.  1.
</event>
<event>
 5   0  0.1014700E+04  0.9118800E+02  0.7818608E-02  0.1180000E+00
       11   -1    0    0    0    0  0.00000000000E+00  0.00000000000E+00  0.39999999673E+01  0.40000000000E+01  0.51109989000E-03 0.  1.
     -623   -1    0    0    0    0  0.00000000000E+00  0.00000000000E+00  0.12525980253E-10  0.17130000000E+03  0.17130000000E+03 0. -1.
       11    1    1    2    0    0 -0.33343639980E-02  0.75511184430E-02  0.57448434098E-01  0.58040685517E-01  0.51109989000E-03 0.  1.
     -623    1    1    2    0    0 -0.67415490121E-02  0.31229588461E-01  0.46737881078E-01  0.17130000936E+03  0.17130000000E+03 0. -1.
      622    1    1    2    0    0  0.10075913010E-01 -0.38780706904E-01  0.38958136522E+01  0.39419499591E+01  0.60000000000E+00 0.  1.
</event>
<event>
 5   0  0.1014700E+04  0.9118800E+02  0.7818608E-02  0.1180000E+00
       11   -1    0    0    0    0  0.00000000000E+00  0.00000000000E+00  0.39999999673E+01  0.40000000000E+01  0.51109989000E-03 0.  1.
     -623   -1    0    0    0    0  0.00000000000E+00  0.00000000000E+00  0.12525980253E-10  0.17130000000E+03  0.17130000000E+03 0.  1.
       11    1    1    2    0    0  0.52015343302E-01  0.25309274788E-01  0.93854940238E-01  0.11025047102E+00  0.51109989000E-03 0.  1.
     -623    1    1    2    0    0 -0.77618962765E-01  0.78488869213E-02  0.63207678340E-01  0.17130002943E+03  0.17130000000E+03 0.  1.
      622    1    1    2    0    0  0.25603619463E-01 -0.33158161710E-01  0.38429373488E+01  0.38897201025E+01  0.60000000000E+00 0.  1.
</event>
<event>
 5   0  0.1014700E+04  0.9118800E+02  0.7818608E-02  0.1180000E+00
       11   -1    0    0    0    0  0.00000000000E+00  0.00000000000E+00  0.39999999673E+01  0.40000000000E+01  0.51109989000E-03 0.  1.
     -623   -1    0    0    0    0  0.00000000000E+00  0.00000000000E+00  0.12525980253E-10  0.17130000000E+03  0.17130000000E+03 0. -1.
       11    1    1    2    0    0 -0.56249892709E-01 -0.21980116850E-01  0.10709646383E+00  0.12295157484E+00  0.51109989000E-03 0.  1.
     -623    1    1    2    0    0  0.21453991661E-01  0.34693369883E-01  0.62759210535E-01  0.17130001635E+03  0.17130000000E+03 0. -1.
      622    1    1    2    0    0  0.34795901048E-01 -0.12713253033E-01  0.38301442930E+01  0.38770320719E+01  0.60000000000E+00 0.  1.
</event>
<event>
 5   0  0.1014700E+04  0.9118800E+02  0.7818608E-02  0.1180000E+00
       11   -1    0    0    0    0  0.00000000000E+00  0.00000000000E+00  0.39999999673E+01  0.40000000000E+01  0.51109989000E-03 0.  1.
     -623   -1    0    0    0    0  0.00000000000E+00  0.00000000000E+00  0.12525980253E-10  0.17130000000E+03  0.17130000000E+03 0.  1.
       11    1    1    2    0    0 -0.37006723372E-01  0.35571989160E-01  0.62137017995E-01  0.80598599343E-01  0.51109989000E-03 0.  1.
     -623    1    1    2    0    0  0.57651020628E-01 -0.73864955896E-01  0.64941903937E-01  0.17130003794E+03  0.17130000000E+03 0.  1.
      622    1    1    2    0    0 -0.20644297256E-01  0.38292966737E-01  0.38729210454E+01  0.39193634639E+01  0.60000000000E+00 0.  1.
</event>
<event>
 5   0  0.1014700E+04  0.9118800E+02  0.7818608E-02  0.1180000E+00
       11   -1    0    0    0    0  0.00000000000E+00  0.00000000000E+00  0.39999999673E+01  0.40000000000E+01  0.51109989000E-03 0. -1.
     -623   -1    0    0    0    0  0.00000000000E+00  0.00000000000E+00  0.12525980253E-10  0.17130000000E+03  0.17130000000E+03 0.  1.
       11    1    1    2    0    0 -0.15014940025E+00 -0.61908480751E-02  0.33245359169E+00  0.36484081576E+00  0.51109989000E-03 0. -1.
     -623    1    1    2    0    0  0.28284825303E-01  0.14664080873E+00  0.87159438295E-01  0.17130008727E+03  0.17130000000E+03 0.  1.
      622    1    1    2    0    0  0.12186457494E+00 -0.14044996065E+00  0.35803869374E+01  0.36350719095E+01  0.60000000000E+00 0. -1.
</event>
<event>
 5   0  0.1014700E+04  0.9118800E+02  0.7818608E-02  0.1180000E+00
       11   -1    0    0    0    0  0.00000000000E+00  0.00000000000E+00  0.39999999673E+01  0.40000000000E+01  0.51109989000E-03 0. -1.
     -623   -1    0    0    0    0  0.00000000000E+00  0.00000000000E+00  0.12525980253E-10  0.17130000000E+03  0.17130000000E+03 0.  1.
       11    1    1    2    0    0 -0.22712979255E-01  0.58126603485E-02 -0.22885157745E-01  0.32766722678E-01  0.51109989000E-03 0. -1.
     -623    1    1    2    0    0  0.76694621568E-01  0.32665622668E-01  0.10189751012E+00  0.17130005059E+03  0.17130000000E+03 0.  1.
      622    1    1    2    0    0 -0.53981642313E-01 -0.38478283017E-01  0.39209876150E+01  0.39671826871E+01  0.60000000000E+00 0. -1.
</event>
<event>
 5   0  0.1014700E+04  0.9118800E+02  0.7818608E-02  0.1180000E+00
       11   -1    0    0    0    0  0.00000000000E+00  0.00000000000E+00  0.39999999673E+01  0.40000000000E+01  0.51109989000E-03 0.  1.
     -623   -1    0    0    0    0  0.00000000000E+00  0.00000000000E+00  0.12525980253E-10  0.17130000000E+03  0.17130000000E+03 0.  1.
       11    1    1    2    0    0  0.41297069331E-01 -0.42834633269E-01  0.45628379882E+00  0.46014717214E+00  0.51109989000E-03 0.  1.
     -623    1    1    2    0    0 -0.41885006097E-01  0.95954598554E-02  0.55256393176E-01  0.17130001430E+03  0.17130000000E+03 0.  1.
      622    1    1    2    0    0  0.58793676619E-03  0.33239173414E-01  0.34884597754E+01  0.35398385263E+01  0.60000000000E+00 0.  1.
</event>
<event>
 5   0  0.1014700E+04  0.9118800E+02  0.7818608E-02  0.1180000E+00
       11   -1    0    0    0    0  0.00000000000E+00  0.00000000000E+00  0.39999999673E+01  0.40000000000E+01  0.51109989000E-03 0.  1.
     -623   -1    0    0    0    0  0.00000000000E+00  0.00000000000E+00  0.12525980253E-10  0.17130000000E+03  0.17130000000E+03 0. -1.
       11    1    1    2    0    0  0.16782826394E+00 -0.20506890113E+00  0.69091354577E+00  0.73998741161E+00  0.51109989000E-03 0.  1.
     -623    1    1    2    0    0 -0.82991576837E-03  0.10652206648E+00  0.11070668275E+00  0.17130006890E+03  0.17130000000E+03 0. -1.
      622    1    1    2    0    0 -0.16699834817E+00  0.98546834648E-01  0.31983797388E+01  0.32599436929E+01  0.60000000000E+00 0.  1.
</event>
<event>
 5   0  0.1014700E+04  0.9118800E+02  0.7818608E-02  0.1180000E+00
       11   -1    0    0    0    0  0.00000000000E+00  0.00000000000E+00  0.39999999673E+01  0.40000000000E+01  0.51109989000E-03 0.  1.
     -623   -1    0    0    0    0  0.00000000000E+00  0.00000000000E+00  0.12525980253E-10  0.17130000000E+03  0.17130000000E+03 0. -1.
       11    1    1    2    0    0 -0.23095332687E-01 -0.14695750656E-01  0.78617029798E-01  0.83248171611E-01  0.51109989000E-03 0.  1.
     -623    1    1    2    0    0  0.28799838920E-01  0.16594419717E-01  0.50875955891E-01  0.17130001078E+03  0.17130000000E+03 0. -1.
      622    1    1    2    0    0 -0.57045062333E-02 -0.18986690610E-02  0.38705069817E+01  0.39167410486E+01  0.60000000000E+00 0.  1.
</event>
<event>
 5   0  0.1014700E+04  0.9118800E+02  0.7818608E-02  0.1180000E+00
       11   -1    0    0    0    0  0.00000000000E+00  0.00000000000E+00  0.39999999673E+01  0.40000000000E+01  0.51109989000E-03 0. -1.
     -623   -1    0    0    0    0  0.00000000000E+00  0.00000000000E+00  0.12525980253E-10  0.17130000000E+03  0.17130000000E+03 0.  1.
       11    1    1    2    0    0  0.64285812617E-02  0.17714645503E-02 -0.49776867726E-02  0.83368658616E-02  0.51109989000E-03 0. -1.
     -623    1    1    2    0    0 -0.10536912148E-01  0.21538118658E-01  0.58749006613E-01  0.17130001175E+03  0.17130000000E+03 0.  1.
      622    1    1    2    0    0  0.41083308864E-02 -0.23309583209E-01  0.39462286475E+01  0.39916513818E+01  0.60000000000E+00 0. -1.
</event>
<event>
 5   0  0.1014700E+04  0.9118800E+02  0.7818608E-02  0.1180000E+00
       11   -1    0    0    0    0  0.00000000000E+00  0.00000000000E+00  0.39999999673E+01  0.40000000000E+01  0.51109989000E-03 0.  1.
     -623   -1    0    0    0    0  0.00000000000E+00  0.00000000000E+00  0.12525980253E-10  0.17130000000E+03  0.17130000000E+03 0. -1.
       11    1    1    2    0    0 -0.82973345215E-01  0.17875654837E-01  0.20027414615E+00  0.21751806796E+00  0.51109989000E-03 0.  1.
     -623    1    1    2    0    0  0.22056273919E-01  0.37994220424E-03  0.65690553615E-01  0.17130001402E+03  0.17130000000E+03 0. -1.
      622    1    1    2    0    0  0.60917071296E-01 -0.18255597041E-01  0.37340352676E+01  0.37824679161E+01  0.60000000000E+00 0.  1.
</event>
<event>
 5   0  0.1014700E+04  0.9118800E+02  0.7818608E-02  0.1180000E+00
       11   -1    0    0    0    0  0.00000000000E+00  0.00000000000E+00  0.39999999673E+01  0.40000000000E+01  0.51109989000E-03 0.  1.
     -623   -1    0    0    0    0  0.00000000000E+00  0.00000000000E+00  0.12525980253E-10  0.17130000000E+03  0.17130000000E+03 0.  1.
       11    1    1    2    0    0  0.19842885572E+00 -0.17729095768E+00  0.33414013324E+00  0.42714866771E+00  0.51109989000E-03 0.  1.
     -623    1    1    2    0    0 -0.36609590010E+00  0.25593523589E+00  0.14927861194E+00  0.17130064744E+03  0.17130000000E+03 0.  1.
      622    1    1    2    0    0  0.16766704438E+00 -0.78644278207E-01  0.35165812222E+01  0.35722038929E+01  0.60000000000E+00 0.  1.
</event>
<event>
 5   0  0.1014700E+04  0.9118800E+02  0.7818608E-02  0.1180000E+00
       11   -1    0    0    0    0  0.00000000000E+00  0.00000000000E+00  0.39999999673E+01  0.40000000000E+01  0.51109989000E-03 0.  1.
     -623   -1    0    0    0    0  0.00000000000E+00  0.00000000000E+00  0.12525980253E-10  0.17130000000E+03  0.17130000000E+03 0. -1.
       11    1    1    2    0    0 -0.47078882191E-01 -0.59637830296E-02  0.78865241358E-01  0.92043334218E-01  0.51109989000E-03 0.  1.
     -623    1    1    2    0    0  0.21924052583E-01  0.56185309306E-01  0.59942503326E-01  0.17130002110E+03  0.17130000000E+03 0. -1.
      622    1    1    2    0    0  0.25154829607E-01 -0.50221526277E-01  0.38611922227E+01  0.39079355608E+01  0.60000000000E+00 0.  1.
</event>
<event>
 5   0  0.1014700E+04  0.9118800E+02  0.7818608E-02  0.1180000E+00
       11   -1    0    0    0    0  0.00000000000E+00  0.00000000000E+00  0.39999999673E+01  0.40000000000E+01  0.51109989000E-03 0.  1.
     -623   -1    0    0    0    0  0.00000000000E+00  0.00000000000E+00  0.12525980253E-10  0.17130000000E+03  0.17130000000E+03 0.  1.
       11    1    1    2    0    0  0.36227316919E-01 -0.73084176014E-01  0.10398082039E+01  0.10430029134E+01  0.51109989000E-03 0.  1.
     -623    1    1    2    0    0 -0.11908850944E-01  0.25264373584E-01  0.65219093845E-01  0.17130001469E+03  0.17130000000E+03 0.  1.
      622    1    1    2    0    0 -0.24318465975E-01  0.47819802429E-01  0.28949726696E+01  0.29569823941E+01  0.60000000000E+00 0.  1.
</event>
<event>
 5   0  0.1014700E+04  0.9118800E+02  0.7818608E-02  0.1180000E+00
       11   -1    0    0    0    0  0.00000000000E+00  0.00000000000E+00  0.39999999673E+01  0.40000000000E+01  0.51109989000E-03 0. -1.
     -623   -1    0    0    0    0  0.00000000000E+00  0.00000000000E+00  0.12525980253E-10  0.17130000000E+03  0.17130000000E+03 0.  1.
       11    1    1    2    0    0 -0.73407063804E-01 -0.57299933117E-01  0.10407201730E+00  0.13965359057E+00  0.51109989000E-03 0. -1.
     -623    1    1    2    0    0 -0.87614389183E-02 -0.18178065496E-01  0.84149223930E-01  0.17130002186E+03  0.17130000000E+03 0.  1.
      622    1    1    2    0    0  0.82168502722E-01  0.75477998612E-01  0.38117787261E+01  0.38603245522E+01  0.60000000000E+00 0. -1.
</event>
<event>
 5   0  0.1014700E+04  0.9118800E+02  0.7818608E-02  0.1180000E+00
       11   -1    0    0    0    0  0.00000000000E+00  0.00000000000E+00  0.39999999673E+01  0.40000000000E+01  0.51109989000E-03 0.  1.
     -623   -1    0    0    0    0  0.00000000000E+00  0.00000000000E+00  0.12525980253E-10  0.17130000000E+03  0.17130000000E+03 0. -1.
       11    1    1    2    0    0 -0.20264666470E-01  0.71096124749E-01  0.62454523428E-01  0.96778842632E-01  0.51109989000E-03 0.  1.
     -623    1    1    2    0    0  0.36055224782E-01 -0.51113774505E-01  0.80830683615E-01  0.17130003049E+03  0.17130000000E+03 0. -1.
      622    1    1    2    0    0 -0.15790558312E-01 -0.19982350243E-01  0.38567147603E+01  0.39031906664E+01  0.60000000000E+00 0.  1.
</event>
<event>
 5   0  0.1014700E+04  0.9118800E+02  0.7818608E-02  0.1180000E+00
       11   -1    0    0    0    0  0.00000000000E+00  0.00000000000E+00  0.39999999673E+01  0.40000000000E+01  0.51109989000E-03 0. -1.
     -623   -1    0    0    0    0  0.00000000000E+00  0.00000000000E+00  0.12525980253E-10  0.17130000000E+03  0.17130000000E+03 0. -1.
       11    1    1    2    0    0 -0.10253507602E+00 -0.28237402387E+00  0.35537772524E+00  0.46534086431E+00  0.51109989000E-03 0. -1.
     -623    1    1    2    0    0  0.11384233091E+00  0.35869538451E+00  0.16261208462E+00  0.17130049056E+03  0.17130000000E+03 0. -1.
      622    1    1    2    0    0 -0.11307254890E-01 -0.76321360634E-01  0.34820101575E+01  0.35341685785E+01  0.60000000000E+00 0. -1.
</event>
<event>
 5   0  0.1014700E+04  0.9118800E+02  0.7818608E-02  0.1180000E+00
       11   -1    0    0    0    0  0.00000000000E+00  0.00000000000E+00  0.39999999673E+01  0.40000000000E+01  0.51109989000E-03 0. -1.
     -623   -1    0    0    0    0  0.00000000000E+00  0.00000000000E+00  0.12525980253E-10  0.17130000000E+03  0.17130000000E+03 0. -1.
       11    1    1    2    0    0  0.38027301354E-01 -0.35412951367E+00  0.19952188765E+00  0.40824384009E+00  0.51109989000E-03 0. -1.
     -623    1    1    2    0    0 -0.13834253469E+00  0.31952412251E+00  0.26134289489E+00  0.17130055322E+03  0.17130000000E+03 0. -1.
      622    1    1    2    0    0  0.10031523334E+00  0.34605391162E-01  0.35391351848E+01  0.35912029371E+01  0.60000000000E+00 0. -1.
</event>
<event>
 5   0  0.1014700E+04  0.9118800E+02  0.7818608E-02  0.1180000E+00
       11   -1    0    0    0    0  0.00000000000E+00  0.00000000000E+00  0.39999999673E+01  0.40000000000E+01  0.51109989000E-03 0. -1.
     -623   -1    0    0    0    0  0.00000000000E+00  0.00000000000E+00  0.12525980253E-10  0.17130000000E+03  0.17130000000E+03 0.  1.
       11    1    1    2    0    0  0.23214935196E-02 -0.71105336434E-02  0.11937826665E-02  0.75917955433E-02  0.51109989000E-03 0. -1.
     -623    1    1    2    0    0  0.92786348857E-03  0.51951748599E-01  0.52013055852E-01  0.17130001578E+03  0.17130000000E+03 0.  1.
      622    1    1    2    0    0 -0.32493570082E-02 -0.44841214956E-01  0.39467931288E+01  0.39923924274E+01  0.60000000000E+00 0. -1.
</event>
<event>
 5   0  0.1014700E+04  0.9118800E+02  0.7818608E-02  0.1180000E+00
       11   -1    0    0    0    0  0.00000000000E+00  0.00000000000E+00  0.39999999673E+01  0.40000000000E+01  0.51109989000E-03 0.  1.
     -623   -1    0    0    0    0  0.00000000000E+00  0.00000000000E+00  0.12525980253E-10  0.17130000000E+03  0.17130000000E+03 0. -1.
       11    1    1    2    0    0 -0.46646353341E-01 -0.13967103956E+00  0.28365618239E+00  0.31960127128E+00  0.51109989000E-03 0.  1.
     -623    1    1    2    0    0  0.47413601416E-02  0.35810754073E-01  0.86935927113E-01  0.17130002587E+03  0.17130000000E+03 0. -1.
      622    1    1    2    0    0  0.41904993199E-01  0.10386028549E+00  0.36294078579E+01  0.36803728596E+01  0.60000000000E+00 0.  1.
</event>
<event>
 5   0  0.1014700E+04  0.9118800E+02  0.7818608E-02  0.1180000E+00
       11   -1    0    0    0    0  0.00000000000E+00  0.00000000000E+00  0.39999999673E+01  0.40000000000E+01  0.51109989000E-03 0.  1.
     -623   -1    0    0    0    0  0.00000000000E+00  0.00000000000E+00  0.12525980253E-10  0.17130000000E+03  0.17130000000E+03 0. -1.
       11    1    1    2    0    0 -0.81610170945E-01 -0.12028678406E-02  0.86998057156E+00  0.87380096304E+00  0.51109989000E-03 0.  1.
     -623    1    1    2    0    0  0.22297503060E+00  0.64129915479E-01  0.66016348016E-01  0.17130016984E+03  0.17130000000E+03 0. -1.
      622    1    1    2    0    0 -0.14136485966E+00 -0.62927047638E-01  0.30640030478E+01  0.31260291927E+01  0.60000000000E+00 0.  1.
</event>
<event>
 5   0  0.1014700E+04  0.9118800E+02  0.7818608E-02  0.1180000E+00
       11   -1    0    0    0    0  0.00000000000E+00  0.00000000000E+00  0.39999999673E+01  0.40000000000E+01  0.51109989000E-03 0. -1.
     -623   -1    0    0    0    0  0.00000000000E+00  0.00000000000E+00  0.12525980253E-10  0.17130000000E+03  0.17130000000E+03 0. -1.
       11    1    1    2    0    0 -0.58006552264E-02 -0.11314764814E-01  0.36596789198E-01  0.38746066948E-01  0.51109989000E-03 0. -1.
     -623    1    1    2    0    0  0.38740694063E-01  0.36100954672E-01  0.48085182369E-01  0.17130001493E+03  0.17130000000E+03 0. -1.
      622    1    1    2    0    0 -0.32940038836E-01 -0.24786189858E-01  0.39153179958E+01  0.39612389993E+01  0.60000000000E+00 0. -1.
</event>
<event>
 5   0  0.1014700E+04  0.9118800E+02  0.7818608E-02  0.1180000E+00
       11   -1    0    0    0    0  0.00000000000E+00  0.00000000000E+00  0.39999999673E+01  0.40000000000E+01  0.51109989000E-03 0.  1.
     -623   -1    0    0    0    0  0.00000000000E+00  0.00000000000E+00  0.12525980253E-10  0.17130000000E+03  0.17130000000E+03 0.  1.
       11    1    1    2    0    0 -0.17495012380E-01 -0.42923068972E-01  0.99663474555E+00  0.99771215416E+00  0.51109989000E-03 0.  1.
     -623    1    1    2    0    0 -0.17373244755E+00  0.42096036756E-01  0.67973824463E-01  0.17130010676E+03  0.17130000000E+03 0.  1.
      622    1    1    2    0    0  0.19122745993E+00  0.82703221537E-03  0.29353913974E+01  0.30021810873E+01  0.60000000000E+00 0.  0.
</event>
<event>
 5   0  0.1014700E+04  0.9118800E+02  0.7818608E-02  0.1180000E+00
       11   -1    0    0    0    0  0.00000000000E+00  0.00000000000E+00  0.39999999673E+01  0.40000000000E+01  0.51109989000E-03 0. -1.
     -623   -1    0    0    0    0  0.00000000000E+00  0.00000000000E+00  0.12525980253E-10  0.17130000000E+03  0.17130000000E+03 0. -1.
       11    1    1    2    0    0  0.10289032025E-02  0.57105331865E-01  0.23191834671E+00  0.23884819098E+00  0.51109989000E-03 0. -1.
     -623    1    1    2    0    0  0.17957977376E-01 -0.35104245388E-01  0.55223249451E-01  0.17130001344E+03  0.17130000000E+03 0. -1.
      622    1    1    2    0    0 -0.18986880579E-01 -0.22001086477E-01  0.37128583712E+01  0.37611383694E+01  0.60000000000E+00 0. -1.
</event>
<event>
 5   0  0.1014700E+04  0.9118800E+02  0.7818608E-02  0.1180000E+00
       11   -1    0    0    0    0  0.00000000000E+00  0.00000000000E+00  0.39999999673E+01  0.40000000000E+01  0.51109989000E-03 0. -1.
     -623   -1    0    0    0    0  0.00000000000E+00  0.00000000000E+00  0.12525980253E-10  0.17130000000E+03  0.17130000000E+03 0.  1.
       11    1    1    2    0    0 -0.45713219824E-01  0.82471593675E-01  0.16484898391E+00  0.18991237703E+00  0.51109989000E-03 0. -1.
     -623    1    1    2    0    0  0.61124773540E-01  0.22798792109E-01  0.74136304564E-01  0.17130002847E+03  0.17130000000E+03 0.  1.
      622    1    1    2    0    0 -0.15411553715E-01 -0.10527038578E+00  0.37610146789E+01  0.38100591577E+01  0.60000000000E+00 0. -1.
</event>
<event>
 5   0  0.1014700E+04  0.9118800E+02  0.7818608E-02  0.1180000E+00
       11   -1    0    0    0    0  0.00000000000E+00  0.00000000000E+00  0.39999999673E+01  0.40000000000E+01  0.51109989000E-03 0. -1.
     -623   -1    0    0    0    0  0.00000000000E+00  0.00000000000E+00  0.12525980253E-10  0.17130000000E+03  0.17130000000E+03 0.  1.
       11    1    1    2    0    0  0.72359868217E-01 -0.22561945941E-01  0.18746199388E+00  0.20220596506E+00  0.51109989000E-03 0. -1.
     -623    1    1    2    0    0  0.90706006983E-01  0.55717220572E-02  0.66062225249E-01  0.17130003684E+03  0.17130000000E+03 0.  1.
      622    1    1    2    0    0 -0.16306587520E+00  0.16990223884E-01  0.37464757482E+01  0.37977571907E+01  0.60000000000E+00 0.  0.
</event>
<event>
 5   0  0.1014700E+04  0.9118800E+02  0.7818608E-02  0.1180000E+00
       11   -1    0    0    0    0  0.00000000000E+00  0.00000000000E+00  0.39999999673E+01  0.40000000000E+01  0.51109989000E-03 0. -1.
     -623   -1    0    0    0    0  0.00000000000E+00  0.00000000000E+00  0.12525980253E-10  0.17130000000E+03  0.17130000000E+03 0. -1.
       11    1    1    2    0    0  0.79089484311E-01  0.10712870172E-01  0.10824837209E+01  0.10854221203E+01  0.51109989000E-03 0. -1.
     -623    1    1    2    0    0 -0.52311703262E-02  0.11935338855E+00  0.69347137385E-01  0.17130005570E+03  0.17130000000E+03 0. -1.
      622    1    1    2    0    0 -0.73858313984E-01 -0.13006625872E+00  0.28481691091E+01  0.29145221832E+01  0.60000000000E+00 0.  1.
</event>
<event>
 5   0  0.1014700E+04  0.9118800E+02  0.7818608E-02  0.1180000E+00
       11   -1    0    0    0    0  0.00000000000E+00  0.00000000000E+00  0.39999999673E+01  0.40000000000E+01  0.51109989000E-03 0.  1.
     -623   -1    0    0    0    0  0.00000000000E+00  0.00000000000E+00  0.12525980253E-10  0.17130000000E+03  0.17130000000E+03 0.  1.
       11    1    1    2    0    0  0.48413874514E-01  0.16711492265E-01  0.34238021712E+00  0.34619019558E+00  0.51109989000E-03 0.  1.
     -623    1    1    2    0    0 -0.70800134059E-01  0.97394746661E-02  0.53600457082E-01  0.17130002329E+03  0.17130000000E+03 0.  1.
      622    1    1    2    0    0  0.22386259545E-01 -0.26450966931E-01  0.36040192932E+01  0.36537865104E+01  0.60000000000E+00 0.  1.
</event>
<event>
 5   0  0.1014700E+04  0.9118800E+02  0.7818608E-02  0.1180000E+00
       11   -1    0    0    0    0  0.00000000000E+00  0.00000000000E+00  0.39999999673E+01  0.40000000000E+01  0.51109989000E-03 0. -1.
     -623   -1    0    0    0    0  0.00000000000E+00  0.00000000000E+00  0.12525980253E-10  0.17130000000E+03  0.17130000000E+03 0. -1.
       11    1    1    2    0    0  0.18155420679E-01  0.15128988252E-01  0.16184339082E+00  0.16356053913E+00  0.51109989000E-03 0. -1.
     -623    1    1    2    0    0  0.10888144224E-02 -0.26508927417E-01  0.49001215102E-01  0.17130000906E+03  0.17130000000E+03 0. -1.
      622    1    1    2    0    0 -0.19244235101E-01  0.11379939166E-01  0.37891553614E+01  0.38364303977E+01  0.60000000000E+00 0. -1.
</event>
<event>
 5   0  0.1014700E+04  0.9118800E+02  0.7818608E-02  0.1180000E+00
       11   -1    0    0    0    0  0.00000000000E+00  0.00000000000E+00  0.39999999673E+01  0.40000000000E+01  0.51109989000E-03 0.  1.
     -623   -1    0    0    0    0  0.00000000000E+00  0.00000000000E+00  0.12525980253E-10  0.17130000000E+03  0.17130000000E+03 0.  1.
       11    1    1    2    0    0 -0.20564664446E-01  0.17671295244E-01  0.51584645335E-01  0.58278786508E-01  0.51109989000E-03 0.  1.
     -623    1    1    2    0    0  0.11404268148E-01 -0.98443038729E-02  0.52654557987E-01  0.17130000876E+03  0.17130000000E+03 0.  1.
      622    1    1    2    0    0  0.91603962975E-02 -0.78269913714E-02  0.38957607640E+01  0.39417124585E+01  0.60000000000E+00 0.  1.
</event>
<event>
 5   0  0.1014700E+04  0.9118800E+02  0.7818608E-02  0.1180000E+00
       11   -1    0    0    0    0  0.00000000000E+00  0.00000000000E+00  0.39999999673E+01  0.40000000000E+01  0.51109989000E-03 0. -1.
     -623   -1    0    0    0    0  0.00000000000E+00  0.00000000000E+00  0.12525980253E-10  0.17130000000E+03  0.17130000000E+03 0. -1.
       11    1    1    2    0    0 -0.31298969289E-01  0.13899128415E-01  0.66701478257E-01  0.74981062102E-01  0.51109989000E-03 0. -1.
     -623    1    1    2    0    0  0.73669650667E-01 -0.96339085073E-02  0.54669190670E-01  0.17130002484E+03  0.17130000000E+03 0. -1.
      622    1    1    2    0    0 -0.42370681378E-01 -0.42652199073E-02  0.38786292984E+01  0.39249941021E+01  0.60000000000E+00 0. -1.
</event>
<event>
 5   0  0.1014700E+04  0.9118800E+02  0.7818608E-02  0.1180000E+00
       11   -1    0    0    0    0  0.00000000000E+00  0.00000000000E+00  0.39999999673E+01  0.40000000000E+01  0.51109989000E-03 0.  1.
     -623   -1    0    0    0    0  0.00000000000E+00  0.00000000000E+00  0.12525980253E-10  0.17130000000E+03  0.17130000000E+03 0. -1.
       11    1    1    2    0    0 -0.89749539331E-01  0.12344117731E+00  0.45574264975E+00  0.48061869302E+00  0.51109989000E-03 0.  1.
     -623    1    1    2    0    0  0.59762752130E-01  0.42946254017E-01  0.80557532604E-01  0.17130003475E+03  0.17130000000E+03 0. -1.
      622    1    1    2    0    0  0.29986787202E-01 -0.16638743133E+00  0.34636997850E+01  0.35193465566E+01  0.60000000000E+00 0.  1.
</event>
<event>
 5   0  0.1014700E+04  0.9118800E+02  0.7818608E-02  0.1180000E+00
       11   -1    0    0    0    0  0.00000000000E+00  0.00000000000E+00  0.39999999673E+01  0.40000000000E+01  0.51109989000E-03 0.  1.
     -623   -1    0    0    0    0  0.00000000000E+00  0.00000000000E+00  0.12525980253E-10  0.17130000000E+03  0.17130000000E+03 0.  1.
       11    1    1    2    0    0  0.45222145272E-02 -0.31773975170E-01  0.16214071186E-01  0.35960996230E-01  0.51109989000E-03 0.  1.
     -623    1    1    2    0    0  0.38081948485E-01  0.98217193418E-02  0.65728668330E-01  0.17130001712E+03  0.17130000000E+03 0.  1.
      622    1    1    2    0    0 -0.42604163012E-01  0.21952255828E-01  0.39180572279E+01  0.39640218790E+01  0.60000000000E+00 0.  1.
</event>
<event>
 5   0  0.1014700E+04  0.9118800E+02  0.7818608E-02  0.1180000E+00
       11   -1    0    0    0    0  0.00000000000E+00  0.00000000000E+00  0.39999999673E+01  0.40000000000E+01  0.51109989000E-03 0. -1.
     -623   -1    0    0    0    0  0.00000000000E+00  0.00000000000E+00  0.12525980253E-10  0.17130000000E+03  0.17130000000E+03 0. -1.
       11    1    1    2    0    0  0.23545029214E-01 -0.18141709637E-01  0.23068572823E-02  0.29817324542E-01  0.51109989000E-03 0. -1.
     -623    1    1    2    0    0  0.49157085751E-02  0.32812919044E-02  0.73257553282E-01  0.17130001577E+03  0.17130000000E+03 0. -1.
      622    1    1    2    0    0 -0.28460737789E-01  0.14860417733E-01  0.39244355568E+01  0.39701669090E+01  0.60000000000E+00 0. -1.
</event>
<event>
 5   0  0.1014700E+04  0.9118800E+02  0.7818608E-02  0.1180000E+00
       11   -1    0    0    0    0  0.00000000000E+00  0.00000000000E+00  0.39999999673E+01  0.40000000000E+01  0.51109989000E-03 0. -1.
     -623   -1    0    0    0    0  0.00000000000E+00  0.00000000000E+00  0.12525980253E-10  0.17130000000E+03  0.17130000000E+03 0.  1.
       11    1    1    2    0    0  0.52487826898E-01  0.46476039361E-01  0.70709181887E+00  0.71055900230E+00  0.51109989000E-03 0. -1.
     -623    1    1    2    0    0  0.58297996168E-01 -0.11173491343E+00  0.61265721006E-01  0.17130005732E+03  0.17130000000E+03 0.  1.
      622    1    1    2    0    0 -0.11078582307E+00  0.65258874068E-01  0.32316424275E+01  0.32893836806E+01  0.60000000000E+00 0. -1.
</event>
<event>
 5   0  0.1014700E+04  0.9118800E+02  0.7818608E-02  0.1180000E+00
       11   -1    0    0    0    0  0.00000000000E+00  0.00000000000E+00  0.39999999673E+01  0.40000000000E+01  0.51109989000E-03 0. -1.
     -623   -1    0    0    0    0  0.00000000000E+00  0.00000000000E+00  0.12525980253E-10  0.17130000000E+03  0.17130000000E+03 0. -1.
       11    1    1    2    0    0  0.17840450197E-01  0.12662309226E+00  0.36066587570E+00  0.38266411417E+00  0.51109989000E-03 0. -1.
     -623    1    1    2    0    0  0.13811169016E+00 -0.34509637117E-01  0.76784372044E-01  0.17130007636E+03  0.17130000000E+03 0. -1.
      622    1    1    2    0    0 -0.15595214036E+00 -0.92113455147E-01  0.35625497196E+01  0.36172595239E+01  0.60000000000E+00 0. -1.
</event>
<event>
 5   0  0.1014700E+04  0.9118800E+02  0.7818608E-02  0.1180000E+00
       11   -1    0    0    0    0  0.00000000000E+00  0.00000000000E+00  0.39999999673E+01  0.40000000000E+01  0.51109989000E-03 0. -1.
     -623   -1    0    0    0    0  0.00000000000E+00  0.00000000000E+00  0.12525980253E-10  0.17130000000E+03  0.17130000000E+03 0. -1.
       11    1    1    2    0    0  0.47223784025E-01 -0.10358148850E+00  0.35034493242E+00  0.36837622539E+00  0.51109989000E-03 0. -1.
     -623    1    1    2    0    0 -0.10581303638E+00  0.78305295932E-01  0.68572432202E-01  0.17130006430E+03  0.17130000000E+03 0. -1.
      622    1    1    2    0    0  0.58589252358E-01  0.25276192573E-01  0.35810826027E+01  0.36315594714E+01  0.60000000000E+00 0. -1.
</event>
<event>
 5   0  0.1014700E+04  0.9118800E+02  0.7818608E-02  0.1180000E+00
       11   -1    0    0    0    0  0.00000000000E+00  0.00000000000E+00  0.39999999673E+01  0.40000000000E+01  0.51109989000E-03 0. -1.
     -623   -1    0    0    0    0  0.00000000000E+00  0.00000000000E+00  0.12525980253E-10  0.17130000000E+03  0.17130000000E+03 0.  1.
       11    1    1    2    0    0  0.55460289848E-02 -0.28017544355E-02  0.46847529785E-02  0.77984869353E-02  0.51109989000E-03 0. -1.
     -623    1    1    2    0    0  0.43017093296E-04  0.49802615625E-01  0.48757296986E-01  0.17130001418E+03  0.17130000000E+03 0.  1.
      622    1    1    2    0    0 -0.55890460781E-02 -0.47000861190E-01  0.39465579174E+01  0.39921873345E+01  0.60000000000E+00 0. -1.
</event>
<event>
 5   0  0.1014700E+04  0.9118800E+02  0.7818608E-02  0.1180000E+00
       11   -1    0    0    0    0  0.00000000000E+00  0.00000000000E+00  0.39999999673E+01  0.40000000000E+01  0.51109989000E-03 0.  1.
     -623   -1    0    0    0    0  0.00000000000E+00  0.00000000000E+00  0.12525980253E-10  0.17130000000E+03  0.17130000000E+03 0. -1.
       11    1    1    2    0    0 -0.30759602183E-02 -0.16647512379E-01  0.17461102551E-01  0.24325964011E-01  0.51109989000E-03 0.  1.
     -623    1    1    2    0    0 -0.80579746903E-01  0.13096342119E-01  0.53321068690E-01  0.17130002775E+03  0.17130000000E+03 0. -1.
      622    1    1    2    0    0  0.83655707121E-01  0.35511702597E-02  0.39292177961E+01  0.39756462843E+01  0.60000000000E+00 0.  1.
</event>
<event>
 5   0  0.1014700E+04  0.9118800E+02  0.7818608E-02  0.1180000E+00
       11   -1    0    0    0    0  0.00000000000E+00  0.00000000000E+00  0.39999999673E+01  0.40000000000E+01  0.51109989000E-03 0. -1.
     -623   -1    0    0    0    0  0.00000000000E+00  0.00000000000E+00  0.12525980253E-10  0.17130000000E+03  0.17130000000E+03 0. -1.
       11    1    1    2    0    0  0.23504728004E-02  0.83886668010E-02  0.25460384427E-01  0.26914435732E-01  0.51109989000E-03 0. -1.
     -623    1    1    2    0    0  0.45811718347E-01  0.15812251030E-01  0.47403600389E-01  0.17130001341E+03  0.17130000000E+03 0. -1.
      622    1    1    2    0    0 -0.48162191147E-01 -0.24200917831E-01  0.39271359825E+01  0.39730721497E+01  0.60000000000E+00 0. -1.
</event>
<event>
 5   0  0.1014700E+04  0.9118800E+02  0.7818608E-02  0.1180000E+00
       11   -1    0    0    0    0  0.00000000000E+00  0.00000000000E+00  0.39999999673E+01  0.40000000000E+01  0.51109989000E-03 0. -1.
     -623   -1    0    0    0    0  0.00000000000E+00  0.00000000000E+00  0.12525980253E-10  0.17130000000E+03  0.17130000000E+03 0.  1.
       11    1    1    2    0    0  0.74629190243E-01  0.19703297766E-01  0.42052308055E-01  0.87899907935E-01  0.51109989000E-03 0. -1.
     -623    1    1    2    0    0 -0.68795336185E-01 -0.11367470906E+00  0.93357093743E-01  0.17130007697E+03  0.17130000000E+03 0.  1.
      622    1    1    2    0    0 -0.58338540573E-02  0.93971411292E-01  0.38645905656E+01  0.39120231210E+01  0.60000000000E+00 0. -1.
</event>
<event>
 5   0  0.1014700E+04  0.9118800E+02  0.7818608E-02  0.1180000E+00
       11   -1    0    0    0    0  0.00000000000E+00  0.00000000000E+00  0.39999999673E+01  0.40000000000E+01  0.51109989000E-03 0.  1.
     -623   -1    0    0    0    0  0.00000000000E+00  0.00000000000E+00  0.12525980253E-10  0.17130000000E+03  0.17130000000E+03 0. -1.
       11    1    1    2    0    0 -0.56986929879E-02  0.11204089309E+00  0.15003861018E+00  0.18734322137E+00  0.51109989000E-03 0.  1.
     -623    1    1    2    0    0  0.21413694376E-01 -0.14706338170E+00  0.85094102913E-01  0.17130008560E+03  0.17130000000E+03 0. -1.
      622    1    1    2    0    0 -0.15715001388E-01  0.35022488614E-01  0.37648672543E+01  0.38125711768E+01  0.60000000000E+00 0.  1.
</event>
<event>
 5   0  0.1014700E+04  0.9118800E+02  0.7818608E-02  0.1180000E+00
       11   -1    0    0    0    0  0.00000000000E+00  0.00000000000E+00  0.39999999673E+01  0.40000000000E+01  0.51109989000E-03 0. -1.
     -623   -1    0    0    0    0  0.00000000000E+00  0.00000000000E+00  0.12525980253E-10  0.17130000000E+03  0.17130000000E+03 0. -1.
       11    1    1    2    0    0  0.14067568205E+00  0.45893175377E-01  0.87869851612E-01  0.17209649361E+00  0.51109989000E-03 0. -1.
     -623    1    1    2    0    0  0.22762132320E-01 -0.13740470082E+00  0.13629770602E+00  0.17130011084E+03  0.17130000000E+03 0. -1.
      622    1    1    2    0    0 -0.16343781437E+00  0.91511525443E-01  0.37758324097E+01  0.38277926622E+01  0.60000000000E+00 0. -1.
</event>
<event>
 5   0  0.1014700E+04  0.9118800E+02  0.7818608E-02  0.1180000E+00
       11   -1    0    0    0    0  0.00000000000E+00  0.00000000000E+00  0.39999999673E+01  0.40000000000E+01  0.51109989000E-03 0.  1.
     -623   -1    0    0    0    0  0.00000000000E+00  0.00000000000E+00  0.12525980253E-10  0.17130000000E+03  0.17130000000E+03 0. -1.
       11    1    1    2    0    0  0.12619772197E-01  0.51123708423E-02 -0.19889204387E-02  0.13769967753E-01  0.51109989000E-03 0.  1.
     -623    1    1    2    0    0 -0.18885481733E-01 -0.10196472685E-01  0.61193675691E-01  0.17130001227E+03  0.17130000000E+03 0. -1.
      622    1    1    2    0    0  0.62657095359E-02  0.50841018425E-02  0.39407952121E+01  0.39862177576E+01  0.60000000000E+00 0.  1.
</event>
<event>
 5   0  0.1014700E+04  0.9118800E+02  0.7818608E-02  0.1180000E+00
       11   -1    0    0    0    0  0.00000000000E+00  0.00000000000E+00  0.39999999673E+01  0.40000000000E+01  0.51109989000E-03 0.  1.
     -623   -1    0    0    0    0  0.00000000000E+00  0.00000000000E+00  0.12525980253E-10  0.17130000000E+03  0.17130000000E+03 0.  1.
       11    1    1    2    0    0 -0.13671108835E-01 -0.22463617702E-02  0.10540609524E+00  0.10631392898E+00  0.51109989000E-03 0.  1.
     -623    1    1    2    0    0 -0.30456756686E-01 -0.33788256943E-01  0.47848964867E-01  0.17130001272E+03  0.17130000000E+03 0.  1.
      622    1    1    2    0    0  0.44127865520E-01  0.36034618713E-01  0.38467449073E+01  0.38936733484E+01  0.60000000000E+00 0.  1.
</event>
<event>
 5   0  0.1014700E+04  0.9118800E+02  0.7818608E-02  0.1180000E+00
       11   -1    0    0    0    0  0.00000000000E+00  0.00000000000E+00  0.39999999673E+01  0.40000000000E+01  0.51109989000E-03 0. -1.
     -623   -1    0    0    0    0  0.00000000000E+00  0.00000000000E+00  0.12525980253E-10  0.17130000000E+03  0.17130000000E+03 0.  1.
       11    1    1    2    0    0  0.15931310927E-01  0.76941929671E-02  0.14123665191E-02  0.17755654731E-01  0.51109989000E-03 0. -1.
     -623    1    1    2    0    0 -0.31808016400E-01 -0.35744458026E-01  0.61953418176E-01  0.17130001789E+03  0.17130000000E+03 0.  1.
      622    1    1    2    0    0  0.15876705473E-01  0.28050265058E-01  0.39366341827E+01  0.39822264596E+01  0.60000000000E+00 0. -1.
</event>
<event>
 5   0  0.1014700E+04  0.9118800E+02  0.7818608E-02  0.1180000E+00
       11   -1    0    0    0    0  0.00000000000E+00  0.00000000000E+00  0.39999999673E+01  0.40000000000E+01  0.51109989000E-03 0. -1.
     -623   -1    0    0    0    0  0.00000000000E+00  0.00000000000E+00  0.12525980253E-10  0.17130000000E+03  0.17130000000E+03 0.  1.
       11    1    1    2    0    0 -0.16389487137E-01 -0.20127564536E-01  0.58921459978E-01  0.64387373062E-01  0.51109989000E-03 0. -1.
     -623    1    1    2    0    0 -0.52139988357E-02 -0.32528395327E-01  0.51898571690E-01  0.17130001103E+03  0.17130000000E+03 0.  1.
      622    1    1    2    0    0  0.21603485972E-01  0.52655959862E-01  0.38891799357E+01  0.39356015973E+01  0.60000000000E+00 0. -1.
</event>
<event>
 5   0  0.1014700E+04  0.9118800E+02  0.7818608E-02  0.1180000E+00
       11   -1    0    0    0    0  0.00000000000E+00  0.00000000000E+00  0.39999999673E+01  0.40000000000E+01  0.51109989000E-03 0.  1.
     -623   -1    0    0    0    0  0.00000000000E+00  0.00000000000E+00  0.12525980253E-10  0.17130000000E+03  0.17130000000E+03 0. -1.
       11    1    1    2    0    0  0.73592034315E-02  0.16554427519E-02 -0.90006525948E-02  0.11754630403E-01  0.51109989000E-03 0.  1.
     -623    1    1    2    0    0 -0.10280420660E-01  0.29786076007E-02  0.66163249043E-01  0.17130001311E+03  0.17130000000E+03 0. -1.
      622    1    1    2    0    0  0.29212172288E-02 -0.46340503526E-02  0.39428373709E+01  0.39882322577E+01  0.60000000000E+00 0.  1.
</event>
<event>
 5   0  0.1014700E+04  0.9118800E+02  0.7818608E-02  0.1180000E+00
       11   -1    0    0    0    0  0.00000000000E+00  0.00000000000E+00  0.39999999673E+01  0.40000000000E+01  0.51109989000E-03 0.  1.
     -623   -1    0    0    0    0  0.00000000000E+00  0.00000000000E+00  0.12525980253E-10  0.17130000000E+03  0.17130000000E+03 0. -1.
       11    1    1    2    0    0 -0.71654073022E-02  0.17506069820E-01 -0.49204816841E-03  0.18929048493E-01  0.51109989000E-03 0.  1.
     -623    1    1    2    0    0  0.61338039724E-02 -0.25024364598E-01  0.64916458378E-01  0.17130001424E+03  0.17130000000E+03 0. -1.
      622    1    1    2    0    0  0.10316033298E-02  0.75182947777E-02  0.39355755572E+01  0.39810567134E+01  0.60000000000E+00 0.  1.
</event>
<event>
 5   0  0.1014700E+04  0.9118800E+02  0.7818608E-02  0.1180000E+00
       11   -1    0    0    0    0  0.00000000000E+00  0.00000000000E+00  0.39999999673E+01  0.40000000000E+01  0.51109989000E-03 0.  1.
     -623   -1    0    0    0    0  0.00000000000E+00  0.00000000000E+00  0.12525980253E-10  0.17130000000E+03  0.17130000000E+03 0. -1.
       11    1    1    2    0    0 -0.29736473314E-01 -0.95847960098E-03  0.48989510616E-01  0.57318495285E-01  0.51109989000E-03 0.  1.
     -623    1    1    2    0    0  0.71524530996E-01  0.26881994222E-01  0.54586940537E-01  0.17130002574E+03  0.17130000000E+03 0. -1.
      622    1    1    2    0    0 -0.41788057683E-01 -0.25923514621E-01  0.38964235162E+01  0.39426557658E+01  0.60000000000E+00 0.  1.
</event>
<event>
 5   0  0.1014700E+04  0.9118800E+02  0.7818608E-02  0.1180000E+00
       11   -1    0    0    0    0  0.00000000000E+00  0.00000000000E+00  0.39999999673E+01  0.40000000000E+01  0.51109989000E-03 0. -1.
     -623   -1    0    0    0    0  0.00000000000E+00  0.00000000000E+00  0.12525980253E-10  0.17130000000E+03  0.17130000000E+03 0. -1.
       11    1    1    2    0    0 -0.14742055815E+00  0.58873638826E-01  0.10175997802E+01  0.10299070347E+01  0.51109989000E-03 0. -1.
     -623    1    1    2    0    0  0.79732197420E-01 -0.71269429124E-01  0.74407310996E-01  0.17130004954E+03  0.17130000000E+03 0. -1.
      622    1    1    2    0    0  0.67688360730E-01  0.12395790298E-01  0.29079928762E+01  0.29700434236E+01  0.60000000000E+00 0. -1.
</event>
<event>
 5   0  0.1014700E+04  0.9118800E+02  0.7818608E-02  0.1180000E+00
       11   -1    0    0    0    0  0.00000000000E+00  0.00000000000E+00  0.39999999673E+01  0.40000000000E+01  0.51109989000E-03 0. -1.
     -623   -1    0    0    0    0  0.00000000000E+00  0.00000000000E+00  0.12525980253E-10  0.17130000000E+03  0.17130000000E+03 0.  1.
       11    1    1    2    0    0  0.89236541533E-01 -0.46152319929E-01  0.12536315173E+00  0.16065297387E+00  0.51109989000E-03 0. -1.
     -623    1    1    2    0    0 -0.72229567533E-01 -0.70262292606E-01  0.84339071966E-01  0.17130005040E+03  0.17130000000E+03 0.  1.
      622    1    1    2    0    0 -0.17006974000E-01  0.11641461253E+00  0.37902977437E+01  0.38392966263E+01  0.60000000000E+00 0. -1.
</event>
<event>
 5   0  0.1014700E+04  0.9118800E+02  0.7818608E-02  0.1180000E+00
       11   -1    0    0    0    0  0.00000000000E+00  0.00000000000E+00  0.39999999673E+01  0.40000000000E+01  0.51109989000E-03 0. -1.
     -623   -1    0    0    0    0  0.00000000000E+00  0.00000000000E+00  0.12525980253E-10  0.17130000000E+03  0.17130000000E+03 0. -1.
       11    1    1    2    0    0 -0.50151377284E-01 -0.68802056470E-01  0.37481512848E+00  0.38436379301E+00  0.51109989000E-03 0. -1.
     -623    1    1    2    0    0  0.39184830150E-01  0.77576967318E-01  0.59740525242E-01  0.17130003247E+03  0.17130000000E+03 0. -1.
      622    1    1    2    0    0  0.10966547134E-01 -0.87749108482E-02  0.35654443136E+01  0.36156037418E+01  0.60000000000E+00 0. -1.
</event>
<event>
 5   0  0.1014700E+04  0.9118800E+02  0.7818608E-02  0.1180000E+00
       11   -1    0    0    0    0  0.00000000000E+00  0.00000000000E+00  0.39999999673E+01  0.40000000000E+01  0.51109989000E-03 0. -1.
     -623   -1    0    0    0    0  0.00000000000E+00  0.00000000000E+00  0.12525980253E-10  0.17130000000E+03  0.17130000000E+03 0. -1.
       11    1    1    2    0    0  0.25445098607E-01 -0.57382033571E-01  0.91583482100E+00  0.91798356816E+00  0.51109989000E-03 0. -1.
     -623    1    1    2    0    0  0.17609051637E-01 -0.10913873891E+00  0.66062422057E-01  0.17130004841E+03  0.17130000000E+03 0. -1.
      622    1    1    2    0    0 -0.43054150245E-01  0.16652077248E+00  0.30181027243E+01  0.30819680209E+01  0.60000000000E+00 0.  0.
</event>
<event>
 5   0  0.1014700E+04  0.9118800E+02  0.7818608E-02  0.1180000E+00
       11   -1    0    0    0    0  0.00000000000E+00  0.00000000000E+00  0.39999999673E+01  0.40000000000E+01  0.51109989000E-03 0. -1.
     -623   -1    0    0    0    0  0.00000000000E+00  0.00000000000E+00  0.12525980253E-10  0.17130000000E+03  0.17130000000E+03 0.  1.
       11    1    1    2    0    0  0.24203138167E-01 -0.21412735785E-01  0.11445760554E-01  0.34286495982E-01  0.51109989000E-03 0. -1.
     -623    1    1    2    0    0 -0.72295992163E-01  0.16401353971E-01  0.68820965690E-01  0.17130002987E+03  0.17130000000E+03 0.  1.
      622    1    1    2    0    0  0.48092853996E-01  0.50113818140E-02  0.39197332411E+01  0.39656836382E+01  0.60000000000E+00 0. -1.
</event>
<event>
 5   0  0.1014700E+04  0.9118800E+02  0.7818608E-02  0.1180000E+00
       11   -1    0    0    0    0  0.00000000000E+00  0.00000000000E+00  0.39999999673E+01  0.40000000000E+01  0.51109989000E-03 0.  1.
     -623   -1    0    0    0    0  0.00000000000E+00  0.00000000000E+00  0.12525980253E-10  0.17130000000E+03  0.17130000000E+03 0.  1.
       11    1    1    2    0    0  0.19851950719E-01 -0.63733394405E-02  0.49279381791E-01  0.53511102547E-01  0.51109989000E-03 0.  1.
     -623    1    1    2    0    0 -0.23000155969E-01  0.15842839418E-01  0.50130993369E-01  0.17130000961E+03  0.17130000000E+03 0.  1.
      622    1    1    2    0    0  0.31482052495E-02 -0.94694999778E-02  0.39005895922E+01  0.39464792853E+01  0.60000000000E+00 0.  1.
</event>
<event>
 5   0  0.1014700E+04  0.9118800E+02  0.7818608E-02  0.1180000E+00
       11   -1    0    0    0    0  0.00000000000E+00  0.00000000000E+00  0.39999999673E+01  0.40000000000E+01  0.51109989000E-03 0.  1.
     -623   -1    0    0    0    0  0.00000000000E+00  0.00000000000E+00  0.12525980253E-10  0.17130000000E+03  0.17130000000E+03 0.  1.
       11    1    1    2    0    0  0.33419026843E-01 -0.37187016035E-02  0.94142871077E+00  0.94202916026E+00  0.51109989000E-03 0.  1.
     -623    1    1    2    0    0 -0.12561883882E+00 -0.56992770667E-01  0.62141655609E-01  0.17130006681E+03  0.17130000000E+03 0.  1.
      622    1    1    2    0    0  0.92199811975E-01  0.60711472271E-01  0.29964296010E+01  0.30579040276E+01  0.60000000000E+00 0.  1.
</event>
<event>
 5   0  0.1014700E+04  0.9118800E+02  0.7818608E-02  0.1180000E+00
       11   -1    0    0    0    0  0.00000000000E+00  0.00000000000E+00  0.39999999673E+01  0.40000000000E+01  0.51109989000E-03 0. -1.
     -623   -1    0    0    0    0  0.00000000000E+00  0.00000000000E+00  0.12525980253E-10  0.17130000000E+03  0.17130000000E+03 0. -1.
       11    1    1    2    0    0 -0.79134003544E-01 -0.46307331643E-01  0.48716945853E+00  0.49572260592E+00  0.51109989000E-03 0. -1.
     -623    1    1    2    0    0  0.66351964662E-01  0.56152486446E-01  0.60371874614E-01  0.17130003269E+03  0.17130000000E+03 0. -1.
      622    1    1    2    0    0  0.12782038882E-01 -0.98451548037E-02  0.34524586342E+01  0.35042447016E+01  0.60000000000E+00 0. -1.
</event>
<event>
 5   0  0.1014700E+04  0.9118800E+02  0.7818608E-02  0.1180000E+00
       11   -1    0    0    0    0  0.00000000000E+00  0.00000000000E+00  0.39999999673E+01  0.40000000000E+01  0.51109989000E-03 0. -1.
     -623   -1    0    0    0    0  0.00000000000E+00  0.00000000000E+00  0.12525980253E-10  0.17130000000E+03  0.17130000000E+03 0. -1.
       11    1    1    2    0    0  0.27561879915E-02  0.65955806882E-02  0.23231132741E-01  0.24311417243E-01  0.51109989000E-03 0. -1.
     -623    1    1    2    0    0 -0.13990196362E-01 -0.12072689835E-01  0.46643507553E-01  0.17130000735E+03  0.17130000000E+03 0. -1.
      622    1    1    2    0    0  0.11234008370E-01  0.54771091468E-02  0.39301253271E+01  0.39756812357E+01  0.60000000000E+00 0. -1.
</event>
<event>
 5   0  0.1014700E+04  0.9118800E+02  0.7818608E-02  0.1180000E+00
       11   -1    0    0    0    0  0.00000000000E+00  0.00000000000E+00  0.39999999673E+01  0.40000000000E+01  0.51109989000E-03 0.  1.
     -623   -1    0    0    0    0  0.00000000000E+00  0.00000000000E+00  0.12525980253E-10  0.17130000000E+03  0.17130000000E+03 0. -1.
       11    1    1    2    0    0  0.24271171386E-01 -0.94481864838E-02  0.13233305858E+00  0.13487274596E+00  0.51109989000E-03 0.  1.
     -623    1    1    2    0    0 -0.34945035561E-01 -0.27161490337E-02  0.49439058403E-01  0.17130001072E+03  0.17130000000E+03 0. -1.
      622    1    1    2    0    0  0.10673864176E-01  0.12164335518E-01  0.38182278504E+01  0.38651165338E+01  0.60000000000E+00 0.  1.
</event>
<event>
 5   0  0.1014700E+04  0.9118800E+02  0.7818608E-02  0.1180000E+00
       11   -1    0    0    0    0  0.00000000000E+00  0.00000000000E+00  0.39999999673E+01  0.40000000000E+01  0.51109989000E-03 0. -1.
     -623   -1    0    0    0    0  0.00000000000E+00  0.00000000000E+00  0.12525980253E-10  0.17130000000E+03  0.17130000000E+03 0. -1.
       11    1    1    2    0    0 -0.38819370236E-01  0.81685297713E-01  0.87157215371E-01  0.12560283748E+00  0.51109989000E-03 0. -1.
     -623    1    1    2    0    0  0.25771814942E-01 -0.68341956805E-01  0.85269110421E-01  0.17130003679E+03  0.17130000000E+03 0. -1.
      622    1    1    2    0    0  0.13047555294E-01 -0.13343340908E-01  0.38275736416E+01  0.38743603685E+01  0.60000000000E+00 0. -1.
</event>
<event>
 5   0  0.1014700E+04  0.9118800E+02  0.7818608E-02  0.1180000E+00
       11   -1    0    0    0    0  0.00000000000E+00  0.00000000000E+00  0.39999999673E+01  0.40000000000E+01  0.51109989000E-03 0. -1.
     -623   -1    0    0    0    0  0.00000000000E+00  0.00000000000E+00  0.12525980253E-10  0.17130000000E+03  0.17130000000E+03 0. -1.
       11    1    1    2    0    0  0.12182621457E+00  0.67825444803E-02  0.53151046563E+00  0.54533592011E+00  0.51109989000E-03 0. -1.
     -623    1    1    2    0    0 -0.15575499151E+00 -0.79143722756E-01  0.67370641192E-01  0.17130010234E+03  0.17130000000E+03 0. -1.
      622    1    1    2    0    0  0.33928776939E-01  0.72361178275E-01  0.34011188605E+01  0.34545617386E+01  0.60000000000E+00 0. -1.
</event>
<event>
 5   0  0.1014700E+04  0.9118800E+02  0.7818608E-02  0.1180000E+00
       11   -1    0    0    0    0  0.00000000000E+00  0.00000000000E+00  0.39999999673E+01  0.40000000000E+01  0.51109989000E-03 0. -1.
     -623   -1    0    0    0    0  0.00000000000E+00  0.00000000000E+00  0.12525980253E-10  0.17130000000E+03  0.17130000000E+03 0.  1.
       11    1    1    2    0    0 -0.12783480300E+00  0.62100668348E-01  0.31054089414E+00  0.34151740515E+00  0.51109989000E-03 0. -1.
     -623    1    1    2    0    0  0.12552929729E-02 -0.37344604999E-01  0.82842477018E-01  0.17130002411E+03  0.17130000000E+03 0.  1.
      622    1    1    2    0    0  0.12657951002E+00 -0.24756063349E-01  0.36066165962E+01  0.36584584878E+01  0.60000000000E+00 0. -1.
</event>
<event>
 5   0  0.1014700E+04  0.9118800E+02  0.7818608E-02  0.1180000E+00
       11   -1    0    0    0    0  0.00000000000E+00  0.00000000000E+00  0.39999999673E+01  0.40000000000E+01  0.51109989000E-03 0. -1.
     -623   -1    0    0    0    0  0.00000000000E+00  0.00000000000E+00  0.12525980253E-10  0.17130000000E+03  0.17130000000E+03 0. -1.
       11    1    1    2    0    0 -0.18037955997E-01 -0.54015513437E-01  0.12857158764E+00  0.14061990585E+00  0.51109989000E-03 0. -1.
     -623    1    1    2    0    0 -0.70464124767E-01  0.41526183957E-01  0.60051443918E-01  0.17130003005E+03  0.17130000000E+03 0. -1.
      622    1    1    2    0    0  0.88502080764E-01  0.12489329480E-01  0.38113769358E+01  0.38593500422E+01  0.60000000000E+00 0. -1.
</event>
<event>
 5   0  0.1014700E+04  0.9118800E+02  0.7818608E-02  0.1180000E+00
       11   -1    0    0    0    0  0.00000000000E+00  0.00000000000E+00  0.39999999673E+01  0.40000000000E+01  0.51109989000E-03 0.  1.
     -623   -1    0    0    0    0  0.00000000000E+00  0.00000000000E+00  0.12525980253E-10  0.17130000000E+03  0.17130000000E+03 0. -1.
       11    1    1    2    0    0  0.46330719229E-01  0.76657835435E-02  0.19925331023E-01  0.51015486076E-01  0.51109989000E-03 0.  1.
     -623    1    1    2    0    0 -0.12668407628E+00 -0.31205655795E-01  0.77904012831E-01  0.17130006740E+03  0.17130000000E+03 0. -1.
      622    1    1    2    0    0  0.80353357051E-01  0.23539872251E-01  0.39021706235E+01  0.39489171126E+01  0.60000000000E+00 0.  1.
</event>
<event>
 5   0  0.1014700E+04  0.9118800E+02  0.7818608E-02  0.1180000E+00
       11   -1    0    0    0    0  0.00000000000E+00  0.00000000000E+00  0.39999999673E+01  0.40000000000E+01  0.51109989000E-03 0.  1.
     -623   -1    0    0    0    0  0.00000000000E+00  0.00000000000E+00  0.12525980253E-10  0.17130000000E+03  0.17130000000E+03 0. -1.
       11    1    1    2    0    0 -0.38819756575E-01  0.28671620306E-02  0.71025693650E-01  0.80994472035E-01  0.51109989000E-03 0.  1.
     -623    1    1    2    0    0  0.38162810025E-02 -0.14210887262E-01  0.56355935801E-01  0.17130000990E+03  0.17130000000E+03 0. -1.
      622    1    1    2    0    0  0.35003475572E-01  0.11343725231E-01  0.38726183379E+01  0.39189956257E+01  0.60000000000E+00 0.  1.
</event>
<event>
 5   0  0.1014700E+04  0.9118800E+02  0.7818608E-02  0.1180000E+00
       11   -1    0    0    0    0  0.00000000000E+00  0.00000000000E+00  0.39999999673E+01  0.40000000000E+01  0.51109989000E-03 0.  1.
     -623   -1    0    0    0    0  0.00000000000E+00  0.00000000000E+00  0.12525980253E-10  0.17130000000E+03  0.17130000000E+03 0. -1.
       11    1    1    2    0    0 -0.33208720668E-01 -0.57799867394E-02  0.50262768390E-01  0.60521355592E-01  0.51109989000E-03 0.  1.
     -623    1    1    2    0    0 -0.16985133541E-02  0.17610305821E-01  0.56402746522E-01  0.17130001020E+03  0.17130000000E+03 0. -1.
      622    1    1    2    0    0  0.34907234022E-01 -0.11830319082E-01  0.38933344524E+01  0.39394684451E+01  0.60000000000E+00 0.  1.
</event>
<event>
 5   0  0.1014700E+04  0.9118800E+02  0.7818608E-02  0.1180000E+00
       11   -1    0    0    0    0  0.00000000000E+00  0.00000000000E+00  0.39999999673E+01  0.40000000000E+01  0.51109989000E-03 0.  1.
     -623   -1    0    0    0    0  0.00000000000E+00  0.00000000000E+00  0.12525980253E-10  0.17130000000E+03  0.17130000000E+03 0.  1.
       11    1    1    2    0    0 -0.40200544096E-01 -0.42098985702E-01  0.47567489385E+00  0.47922361608E+00  0.51109989000E-03 0.  1.
     -623    1    1    2    0    0  0.46343982198E-01 -0.62712414073E-02  0.55408690526E-01  0.17130001535E+03  0.17130000000E+03 0.  1.
      622    1    1    2    0    0 -0.61434381024E-02  0.48370227110E-01  0.34689163830E+01  0.35207610389E+01  0.60000000000E+00 0.  1.
</event>
<event>
 5   0  0.1014700E+04  0.9118800E+02  0.7818608E-02  0.1180000E+00
       11   -1    0    0    0    0  0.00000000000E+00  0.00000000000E+00  0.39999999673E+01  0.40000000000E+01  0.51109989000E-03 0.  1.
     -623   -1    0    0    0    0  0.00000000000E+00  0.00000000000E+00  0.12525980253E-10  0.17130000000E+03  0.17130000000E+03 0. -1.
       11    1    1    2    0    0 -0.19850790616E-01  0.20035700949E-01  0.33821697408E-01  0.44041476330E-01  0.51109989000E-03 0.  1.
     -623    1    1    2    0    0  0.53773972238E-01 -0.32414340209E-01  0.56173165767E-01  0.17130002072E+03  0.17130000000E+03 0. -1.
      622    1    1    2    0    0 -0.33923181622E-01  0.12378639260E-01  0.39100051042E+01  0.39559378064E+01  0.60000000000E+00 0.  1.
</event>
<event>
 5   0  0.1014700E+04  0.9118800E+02  0.7818608E-02  0.1180000E+00
       11   -1    0    0    0    0  0.00000000000E+00  0.00000000000E+00  0.39999999673E+01  0.40000000000E+01  0.51109989000E-03 0.  1.
     -623   -1    0    0    0    0  0.00000000000E+00  0.00000000000E+00  0.12525980253E-10  0.17130000000E+03  0.17130000000E+03 0.  1.
       11    1    1    2    0    0  0.92242934764E-01 -0.13736759274E+00  0.32062231609E+00  0.36080125464E+00  0.51109989000E-03 0.  1.
     -623    1    1    2    0    0 -0.10745988217E+00 -0.61011135701E-01  0.95571938704E-01  0.17130007123E+03  0.17130000000E+03 0.  1.
      622    1    1    2    0    0  0.15216947410E-01  0.19837872844E+00  0.35838057126E+01  0.36391275137E+01  0.60000000000E+00 0.  1.
</event>
<event>
 5   0  0.1014700E+04  0.9118800E+02  0.7818608E-02  0.1180000E+00
       11   -1    0    0    0    0  0.00000000000E+00  0.00000000000E+00  0.39999999673E+01  0.40000000000E+01  0.51109989000E-03 0. -1.
     -623   -1    0    0    0    0  0.00000000000E+00  0.00000000000E+00  0.12525980253E-10  0.17130000000E+03  0.17130000000E+03 0.  1.
       11    1    1    2    0    0 -0.10912260618E+00  0.12746718640E+00  0.73383654235E+00  0.75277616786E+00  0.51109989000E-03 0. -1.
     -623    1    1    2    0    0 -0.39270926034E-01 -0.17529350885E+00  0.78778091160E-01  0.17130011231E+03  0.17130000000E+03 0.  1.
      622    1    1    2    0    0  0.14839353221E+00  0.47826322455E-01  0.31873853339E+01  0.32471115263E+01  0.60000000000E+00 0. -1.
</event>
<event>
 5   0  0.1014700E+04  0.9118800E+02  0.7818608E-02  0.1180000E+00
       11   -1    0    0    0    0  0.00000000000E+00  0.00000000000E+00  0.39999999673E+01  0.40000000000E+01  0.51109989000E-03 0.  1.
     -623   -1    0    0    0    0  0.00000000000E+00  0.00000000000E+00  0.12525980253E-10  0.17130000000E+03  0.17130000000E+03 0.  1.
       11    1    1    2    0    0 -0.69938615289E-03  0.33168700759E-01  0.17868646180E-01  0.37685562095E-01  0.51109989000E-03 0.  1.
     -623    1    1    2    0    0 -0.19866507169E-01 -0.35454462483E-01  0.65580563445E-01  0.17130001737E+03  0.17130000000E+03 0.  1.
      622    1    1    2    0    0  0.20565893322E-01  0.22857617236E-02  0.39165507577E+01  0.39622970634E+01  0.60000000000E+00 0.  1.
</event>
<event>
 5   0  0.1014700E+04  0.9118800E+02  0.7818608E-02  0.1180000E+00
       11   -1    0    0    0    0  0.00000000000E+00  0.00000000000E+00  0.39999999673E+01  0.40000000000E+01  0.51109989000E-03 0. -1.
     -623   -1    0    0    0    0  0.00000000000E+00  0.00000000000E+00  0.12525980253E-10  0.17130000000E+03  0.17130000000E+03 0.  1.
       11    1    1    2    0    0  0.19770414241E-01  0.24866093231E-01  0.13827519449E+00  0.14187840747E+00  0.51109989000E-03 0. -1.
     -623    1    1    2    0    0  0.31079528834E-01 -0.46381275920E-01  0.50960426144E-01  0.17130001668E+03  0.17130000000E+03 0.  1.
      622    1    1    2    0    0 -0.50849943075E-01  0.21515182688E-01  0.38107643467E+01  0.38581049138E+01  0.60000000000E+00 0. -1.
</event>
<event>
 5   0  0.1014700E+04  0.9118800E+02  0.7818608E-02  0.1180000E+00
       11   -1    0    0    0    0  0.00000000000E+00  0.00000000000E+00  0.39999999673E+01  0.40000000000E+01  0.51109989000E-03 0.  1.
     -623   -1    0    0    0    0  0.00000000000E+00  0.00000000000E+00  0.12525980253E-10  0.17130000000E+03  0.17130000000E+03 0. -1.
       11    1    1    2    0    0  0.78569908971E-02  0.11334335302E-01  0.24052683638E-01  0.27730709980E-01  0.51109989000E-03 0.  1.
     -623    1    1    2    0    0 -0.40945021323E-01  0.12271814266E-01  0.49476589683E-01  0.17130001248E+03  0.17130000000E+03 0. -1.
      622    1    1    2    0    0  0.33088030425E-01 -0.23606149568E-01  0.39264706940E+01  0.39722568118E+01  0.60000000000E+00 0.  1.
</event>
<event>
 5   0  0.1014700E+04  0.9118800E+02  0.7818608E-02  0.1180000E+00
       11   -1    0    0    0    0  0.00000000000E+00  0.00000000000E+00  0.39999999673E+01  0.40000000000E+01  0.51109989000E-03 0. -1.
     -623   -1    0    0    0    0  0.00000000000E+00  0.00000000000E+00  0.12525980253E-10  0.17130000000E+03  0.17130000000E+03 0.  1.
       11    1    1    2    0    0  0.13150043384E-02  0.46676022325E-01  0.33738178121E-01  0.57609948635E-01  0.51109989000E-03 0. -1.
     -623    1    1    2    0    0  0.33835724701E-01  0.35055685033E-01  0.70834525794E-01  0.17130002157E+03  0.17130000000E+03 0.  1.
      622    1    1    2    0    0 -0.35150729040E-01 -0.81731707358E-01  0.38954272634E+01  0.39423684773E+01  0.60000000000E+00 0. -1.
</event>
<event>
 5   0  0.1014700E+04  0.9118800E+02  0.7818608E-02  0.1180000E+00
       11   -1    0    0    0    0  0.00000000000E+00  0.00000000000E+00  0.39999999673E+01  0.40000000000E+01  0.51109989000E-03 0. -1.
     -623   -1    0    0    0    0  0.00000000000E+00  0.00000000000E+00  0.12525980253E-10  0.17130000000E+03  0.17130000000E+03 0. -1.
       11    1    1    2    0    0 -0.61474943789E-01  0.97115266306E-01  0.13685690362E+00  0.17871938047E+00  0.51109989000E-03 0. -1.
     -623    1    1    2    0    0  0.19034242487E+00 -0.31364205102E+00  0.98109501026E-01  0.17130042098E+03  0.17130000000E+03 0. -1.
      622    1    1    2    0    0 -0.12886748108E+00  0.21652678471E+00  0.37650335627E+01  0.38208596421E+01  0.60000000000E+00 0. -1.
</event>
<event>
 5   0  0.1014700E+04  0.9118800E+02  0.7818608E-02  0.1180000E+00
       11   -1    0    0    0    0  0.00000000000E+00  0.00000000000E+00  0.39999999673E+01  0.40000000000E+01  0.51109989000E-03 0. -1.
     -623   -1    0    0    0    0  0.00000000000E+00  0.00000000000E+00  0.12525980253E-10  0.17130000000E+03  0.17130000000E+03 0.  1.
       11    1    1    2    0    0 -0.35284239609E-01 -0.32854532126E-01  0.19715825624E-01  0.52090045586E-01  0.51109989000E-03 0. -1.
     -623    1    1    2    0    0  0.13023118142E-01 -0.89461402990E-02  0.78540655234E-01  0.17130001873E+03  0.17130000000E+03 0.  1.
      622    1    1    2    0    0  0.22261121467E-01  0.41800672425E-01  0.39017434865E+01  0.39478912204E+01  0.60000000000E+00 0. -1.
</event>
<event>
 5   0  0.1014700E+04  0.9118800E+02  0.7818608E-02  0.1180000E+00
       11   -1    0    0    0    0  0.00000000000E+00  0.00000000000E+00  0.39999999673E+01  0.40000000000E+01  0.51109989000E-03 0. -1.
     -623   -1    0    0    0    0  0.00000000000E+00  0.00000000000E+00  0.12525980253E-10  0.17130000000E+03  0.17130000000E+03 0.  1.
       11    1    1    2    0    0  0.27591419040E-01 -0.10574458534E-01  0.11762289872E+00  0.12127865890E+00  0.51109989000E-03 0. -1.
     -623    1    1    2    0    0 -0.12721152786E-01  0.66544976951E-01  0.50802581883E-01  0.17130002093E+03  0.17130000000E+03 0.  1.
      622    1    1    2    0    0 -0.14870266254E-01 -0.55970518417E-01  0.38315744868E+01  0.38787004101E+01  0.60000000000E+00 0. -1.
</event>
<event>
 5   0  0.1014700E+04  0.9118800E+02  0.7818608E-02  0.1180000E+00
       11   -1    0    0    0    0  0.00000000000E+00  0.00000000000E+00  0.39999999673E+01  0.40000000000E+01  0.51109989000E-03 0.  1.
     -623   -1    0    0    0    0  0.00000000000E+00  0.00000000000E+00  0.12525980253E-10  0.17130000000E+03  0.17130000000E+03 0.  1.
       11    1    1    2    0    0  0.21696174302E-01  0.10151495627E-01 -0.12234811509E-01  0.26902205831E-01  0.51109989000E-03 0.  1.
     -623    1    1    2    0    0 -0.50295024812E-01 -0.16487367341E-01  0.84841735386E-01  0.17130002919E+03  0.17130000000E+03 0.  1.
      622    1    1    2    0    0  0.28598850510E-01  0.63358717147E-02  0.39273930435E+01  0.39730686070E+01  0.60000000000E+00 0.  1.
</event>
<event>
 5   0  0.1014700E+04  0.9118800E+02  0.7818608E-02  0.1180000E+00
       11   -1    0    0    0    0  0.00000000000E+00  0.00000000000E+00  0.39999999673E+01  0.40000000000E+01  0.51109989000E-03 0. -1.
     -623   -1    0    0    0    0  0.00000000000E+00  0.00000000000E+00  0.12525980253E-10  0.17130000000E+03  0.17130000000E+03 0. -1.
       11    1    1    2    0    0 -0.22617442365E-01 -0.40577939597E-01  0.16777393974E+00  0.17408754683E+00  0.51109989000E-03 0. -1.
     -623    1    1    2    0    0  0.18625558530E-01  0.22798271275E-01  0.53709087976E-01  0.17130001095E+03  0.17130000000E+03 0. -1.
      622    1    1    2    0    0  0.39918838355E-02  0.17779668322E-01  0.37785169396E+01  0.38259015036E+01  0.60000000000E+00 0. -1.
</event>
<event>
 5   0  0.1014700E+04  0.9118800E+02  0.7818608E-02  0.1180000E+00
       11   -1    0    0    0    0  0.00000000000E+00  0.00000000000E+00  0.39999999673E+01  0.40000000000E+01  0.51109989000E-03 0. -1.
     -623   -1    0    0    0    0  0.00000000000E+00  0.00000000000E+00  0.12525980253E-10  0.17130000000E+03  0.17130000000E+03 0.  1.
       11    1    1    2    0    0  0.14656172608E+00 -0.39223941632E+00  0.69517774247E+00  0.81154448684E+00  0.51109989000E-03 0. -1.
     -623    1    1    2    0    0  0.18638042607E+00  0.19572592798E+00  0.19762186468E+00  0.17130032721E+03  0.17130000000E+03 0.  1.
      622    1    1    2    0    0 -0.33294215215E+00  0.19651348835E+00  0.31072003602E+01  0.31881283077E+01  0.60000000000E+00 0. -1.
</event>
<event>
 5   0  0.1014700E+04  0.9118800E+02  0.7818608E-02  0.1180000E+00
       11   -1    0    0    0    0  0.00000000000E+00  0.00000000000E+00  0.39999999673E+01  0.40000000000E+01  0.51109989000E-03 0. -1.
     -623   -1    0    0    0    0  0.00000000000E+00  0.00000000000E+00  0.12525980253E-10  0.17130000000E+03  0.17130000000E+03 0.  1.
       11    1    1    2    0    0 -0.16276400751E+00  0.83954211882E-02  0.55206319763E+00  0.57561848531E+00  0.51109989000E-03 0. -1.
     -623    1    1    2    0    0 -0.34643044900E-01 -0.81302767497E-01  0.83147118185E-01  0.17130004298E+03  0.17130000000E+03 0.  1.
      622    1    1    2    0    0  0.19740705241E+00  0.72907346308E-01  0.33647896515E+01  0.34243385383E+01  0.60000000000E+00 0. -1.
</event>
<event>
 5   0  0.1014700E+04  0.9118800E+02  0.7818608E-02  0.1180000E+00
       11   -1    0    0    0    0  0.00000000000E+00  0.00000000000E+00  0.39999999673E+01  0.40000000000E+01  0.51109989000E-03 0. -1.
     -623   -1    0    0    0    0  0.00000000000E+00  0.00000000000E+00  0.12525980253E-10  0.17130000000E+03  0.17130000000E+03 0. -1.
       11    1    1    2    0    0 -0.17241397472E+00  0.15768480376E+00  0.11018456871E+01  0.11263459750E+01  0.51109989000E-03 0. -1.
     -623    1    1    2    0    0 -0.10940102675E+00 -0.26511514938E-01  0.10515172434E+00  0.17130006926E+03  0.17130000000E+03 0. -1.
      622    1    1    2    0    0  0.28181500147E+00 -0.13117328882E+00  0.27930025559E+01  0.28735847654E+01  0.60000000000E+00 0. -1.
</event>
<event>
 5   0  0.1014700E+04  0.9118800E+02  0.7818608E-02  0.1180000E+00
       11   -1    0    0    0    0  0.00000000000E+00  0.00000000000E+00  0.39999999673E+01  0.40000000000E+01  0.51109989000E-03 0. -1.
     -623   -1    0    0    0    0  0.00000000000E+00  0.00000000000E+00  0.12525980253E-10  0.17130000000E+03  0.17130000000E+03 0.  1.
       11    1    1    2    0    0  0.16011250361E-01  0.11728468138E-01  0.14278265070E+00  0.14415638615E+00  0.51109989000E-03 0. -1.
     -623    1    1    2    0    0 -0.67349056576E-01 -0.81100977816E-01  0.49360062665E-01  0.17130003955E+03  0.17130000000E+03 0.  1.
      622    1    1    2    0    0  0.51337806215E-01  0.69372509678E-01  0.38078572540E+01  0.38558040643E+01  0.60000000000E+00 0. -1.
</event>
<event>
 5   0  0.1014700E+04  0.9118800E+02  0.7818608E-02  0.1180000E+00
       11   -1    0    0    0    0  0.00000000000E+00  0.00000000000E+00  0.39999999673E+01  0.40000000000E+01  0.51109989000E-03 0. -1.
     -623   -1    0    0    0    0  0.00000000000E+00  0.00000000000E+00  0.12525980253E-10  0.17130000000E+03  0.17130000000E+03 0.  1.
       11    1    1    2    0    0  0.88375902015E-02 -0.67673595508E-01 -0.10634487312E+00  0.12636182886E+00  0.51109989000E-03 0. -1.
     -623    1    1    2    0    0  0.49514247259E-01 -0.53822010731E-01  0.28208199099E+00  0.17130024787E+03  0.17130000000E+03 0.  1.
      622    1    1    2    0    0 -0.58351837461E-01  0.12149560624E+00  0.38242628495E+01  0.38733903058E+01  0.60000000000E+00 0. -1.
</event>
<event>
 5   0  0.1014700E+04  0.9118800E+02  0.7818608E-02  0.1180000E+00
       11   -1    0    0    0    0  0.00000000000E+00  0.00000000000E+00  0.39999999673E+01  0.40000000000E+01  0.51109989000E-03 0. -1.
     -623   -1    0    0    0    0  0.00000000000E+00  0.00000000000E+00  0.12525980253E-10  0.17130000000E+03  0.17130000000E+03 0. -1.
       11    1    1    2    0    0 -0.24051196850E+00  0.38628193600E-01  0.31041427216E+00  0.39458259708E+00  0.51109989000E-03 0. -1.
     -623    1    1    2    0    0 -0.12413158306E-01  0.46922131078E+00  0.18076423903E+00  0.17130073846E+03  0.17130000000E+03 0. -1.
      622    1    1    2    0    0  0.25292512681E+00 -0.50784950438E+00  0.35088214562E+01  0.36046789386E+01  0.60000000000E+00 0.  0.
</event>
<event>
 5   0  0.1014700E+04  0.9118800E+02  0.7818608E-02  0.1180000E+00
       11   -1    0    0    0    0  0.00000000000E+00  0.00000000000E+00  0.39999999673E+01  0.40000000000E+01  0.51109989000E-03 0. -1.
     -623   -1    0    0    0    0  0.00000000000E+00  0.00000000000E+00  0.12525980253E-10  0.17130000000E+03  0.17130000000E+03 0.  1.
       11    1    1    2    0    0  0.54757459342E-01  0.23904089661E-01  0.70425951314E+00  0.70678957825E+00  0.51109989000E-03 0. -1.
     -623    1    1    2    0    0 -0.59104572305E-02  0.32847364123E-01  0.58528559024E-01  0.17130001325E+03  0.17130000000E+03 0.  1.
      622    1    1    2    0    0 -0.48847002112E-01 -0.56751453785E-01  0.32372118952E+01  0.32931971717E+01  0.60000000000E+00 0. -1.
</event>
<event>
 5   0  0.1014700E+04  0.9118800E+02  0.7818608E-02  0.1180000E+00
       11   -1    0    0    0    0  0.00000000000E+00  0.00000000000E+00  0.39999999673E+01  0.40000000000E+01  0.51109989000E-03 0.  1.
     -623   -1    0    0    0    0  0.00000000000E+00  0.00000000000E+00  0.12525980253E-10  0.17130000000E+03  0.17130000000E+03 0.  1.
       11    1    1    2    0    0 -0.32056605092E-01  0.46439716057E-01  0.47379699923E-01  0.73684261174E-01  0.51109989000E-03 0.  1.
     -623    1    1    2    0    0  0.10405614758E+00  0.95437093389E-01  0.75758930366E-01  0.17130007494E+03  0.17130000000E+03 0.  1.
      622    1    1    2    0    0 -0.71999542487E-01 -0.14187680945E+00  0.38768613371E+01  0.39262407962E+01  0.60000000000E+00 0.  1.
</event>
<event>
 5   0  0.1014700E+04  0.9118800E+02  0.7818608E-02  0.1180000E+00
       11   -1    0    0    0    0  0.00000000000E+00  0.00000000000E+00  0.39999999673E+01  0.40000000000E+01  0.51109989000E-03 0. -1.
     -623   -1    0    0    0    0  0.00000000000E+00  0.00000000000E+00  0.12525980253E-10  0.17130000000E+03  0.17130000000E+03 0. -1.
       11    1    1    2    0    0  0.96278933941E-01 -0.43580921657E-01  0.25444148716E+00  0.27551708017E+00  0.51109989000E-03 0. -1.
     -623    1    1    2    0    0 -0.18430024137E-01  0.80577344788E-01  0.70767820500E-01  0.17130003456E+03  0.17130000000E+03 0. -1.
      622    1    1    2    0    0 -0.77848909804E-01 -0.36996423131E-01  0.36747906597E+01  0.37244483592E+01  0.60000000000E+00 0. -1.
</event>
<event>
 5   0  0.1014700E+04  0.9118800E+02  0.7818608E-02  0.1180000E+00
       11   -1    0    0    0    0  0.00000000000E+00  0.00000000000E+00  0.39999999673E+01  0.40000000000E+01  0.51109989000E-03 0.  1.
     -623   -1    0    0    0    0  0.00000000000E+00  0.00000000000E+00  0.12525980253E-10  0.17130000000E+03  0.17130000000E+03 0. -1.
       11    1    1    2    0    0  0.68178618781E-01 -0.36882809062E-01  0.32502231035E+00  0.33413833829E+00  0.51109989000E-03 0.  1.
     -623    1    1    2    0    0 -0.73303418163E-01 -0.66380250747E-01  0.60068848347E-01  0.17130003908E+03  0.17130000000E+03 0. -1.
      622    1    1    2    0    0  0.51247993826E-02  0.10326305981E+00  0.36149088087E+01  0.36658225841E+01  0.60000000000E+00 0.  1.
</event>
<event>
 5   0  0.1014700E+04  0.9118800E+02  0.7818608E-02  0.1180000E+00
       11   -1    0    0    0    0  0.00000000000E+00  0.00000000000E+00  0.39999999673E+01  0.40000000000E+01  0.51109989000E-03 0. -1.
     -623   -1    0    0    0    0  0.00000000000E+00  0.00000000000E+00  0.12525980253E-10  0.17130000000E+03  0.17130000000E+03 0.  1.
       11    1    1    2    0    0 -0.24831040200E-01  0.46546507564E-01  0.27047845984E-01  0.59287478588E-01  0.51109989000E-03 0. -1.
     -623    1    1    2    0    0  0.14412693618E-01  0.49727183818E-02  0.78558062490E-01  0.17130001869E+03  0.17130000000E+03 0.  1.
      622    1    1    2    0    0  0.10418346582E-01 -0.51519225946E-01  0.38943940589E+01  0.39406938296E+01  0.60000000000E+00 0. -1.
</event>
<event>
 5   0  0.1014700E+04  0.9118800E+02  0.7818608E-02  0.1180000E+00
       11   -1    0    0    0    0  0.00000000000E+00  0.00000000000E+00  0.39999999673E+01  0.40000000000E+01  0.51109989000E-03 0. -1.
     -623   -1    0    0    0    0  0.00000000000E+00  0.00000000000E+00  0.12525980253E-10  0.17130000000E+03  0.17130000000E+03 0.  1.
       11    1    1    2    0    0  0.28170520142E-01  0.63838284693E-01  0.15379780673E+00  0.16888733338E+00  0.51109989000E-03 0. -1.
     -623    1    1    2    0    0  0.46686634615E-01  0.48048521275E-02  0.63746788303E-01  0.17130001829E+03  0.17130000000E+03 0.  1.
      622    1    1    2    0    0 -0.74857154757E-01 -0.68643136820E-01  0.37824553723E+01  0.38310943760E+01  0.60000000000E+00 0. -1.
</event>
<event>
 5   0  0.1014700E+04  0.9118800E+02  0.7818608E-02  0.1180000E+00
       11   -1    0    0    0    0  0.00000000000E+00  0.00000000000E+00  0.39999999673E+01  0.40000000000E+01  0.51109989000E-03 0. -1.
     -623   -1    0    0    0    0  0.00000000000E+00  0.00000000000E+00  0.12525980253E-10  0.17130000000E+03  0.17130000000E+03 0. -1.
       11    1    1    2    0    0 -0.16799141284E+00 -0.92099277358E-01  0.95262114472E+00  0.97169475571E+00  0.51109989000E-03 0. -1.
     -623    1    1    2    0    0 -0.71723273165E-01 -0.58756616950E-01  0.92703184861E-01  0.17130005018E+03  0.17130000000E+03 0. -1.
      622    1    1    2    0    0  0.23971468600E+00  0.15085589431E+00  0.29546756378E+01  0.30282550679E+01  0.60000000000E+00 0.  0.
</event>
<event>
 5   0  0.1014700E+04  0.9118800E+02  0.7818608E-02  0.1180000E+00
       11   -1    0    0    0    0  0.00000000000E+00  0.00000000000E+00  0.39999999673E+01  0.40000000000E+01  0.51109989000E-03 0.  1.
     -623   -1    0    0    0    0  0.00000000000E+00  0.00000000000E+00  0.12525980253E-10  0.17130000000E+03  0.17130000000E+03 0. -1.
       11    1    1    2    0    0  0.99554440605E-01 -0.20148928090E-01  0.25232119687E+00  0.27199873816E+00  0.51109989000E-03 0.  1.
     -623    1    1    2    0    0 -0.13314899151E+00  0.98129969685E-01  0.69352560076E-01  0.17130009389E+03  0.17130000000E+03 0. -1.
      622    1    1    2    0    0  0.33594550905E-01 -0.77981041595E-01  0.36783262104E+01  0.37279073683E+01  0.60000000000E+00 0.  1.
</event>
<event>
 5   0  0.1014700E+04  0.9118800E+02  0.7818608E-02  0.1180000E+00
       11   -1    0    0    0    0  0.00000000000E+00  0.00000000000E+00  0.39999999673E+01  0.40000000000E+01  0.51109989000E-03 0. -1.
     -623   -1    0    0    0    0  0.00000000000E+00  0.00000000000E+00  0.12525980253E-10  0.17130000000E+03  0.17130000000E+03 0. -1.
       11    1    1    2    0    0  0.46808717741E-01  0.55415539018E-02  0.70182372275E-01  0.84543429534E-01  0.51109989000E-03 0. -1.
     -623    1    1    2    0    0 -0.30535493717E-01 -0.41379491418E-01  0.60824707289E-01  0.17130001852E+03  0.17130000000E+03 0. -1.
      622    1    1    2    0    0 -0.16273224024E-01  0.35837937516E-01  0.38689928878E+01  0.39154380523E+01  0.60000000000E+00 0. -1.
</event>
<event>
 5   0  0.1014700E+04  0.9118800E+02  0.7818608E-02  0.1180000E+00
       11   -1    0    0    0    0  0.00000000000E+00  0.00000000000E+00  0.39999999673E+01  0.40000000000E+01  0.51109989000E-03 0. -1.
     -623   -1    0    0    0    0  0.00000000000E+00  0.00000000000E+00  0.12525980253E-10  0.17130000000E+03  0.17130000000E+03 0. -1.
       11    1    1    2    0    0 -0.42968160949E-01  0.69733578606E-01  0.10246376614E+00  0.13117972189E+00  0.51109989000E-03 0. -1.
     -623    1    1    2    0    0  0.77095323392E-01 -0.87630292665E-02  0.76198586235E-01  0.17130003452E+03  0.17130000000E+03 0. -1.
      622    1    1    2    0    0 -0.34127162443E-01 -0.60970549340E-01  0.38213376150E+01  0.38687857577E+01  0.60000000000E+00 0. -1.
</event>
<event>
 5   0  0.1014700E+04  0.9118800E+02  0.7818608E-02  0.1180000E+00
       11   -1    0    0    0    0  0.00000000000E+00  0.00000000000E+00  0.39999999673E+01  0.40000000000E+01  0.51109989000E-03 0. -1.
     -623   -1    0    0    0    0  0.00000000000E+00  0.00000000000E+00  0.12525980253E-10  0.17130000000E+03  0.17130000000E+03 0.  1.
       11    1    1    2    0    0  0.13376916012E-01 -0.26514524166E-03  0.77616386793E-02  0.15476318751E-01  0.51109989000E-03 0. -1.
     -623    1    1    2    0    0 -0.38976482827E-02 -0.35373060106E-01  0.53333226079E-01  0.17130001200E+03  0.17130000000E+03 0.  1.
      622    1    1    2    0    0 -0.94792677297E-02  0.35638205348E-01  0.39389051026E+01  0.39845116822E+01  0.60000000000E+00 0. -1.
</event>
<event>
 5   0  0.1014700E+04  0.9118800E+02  0.7818608E-02  0.1180000E+00
       11   -1    0    0    0    0  0.00000000000E+00  0.00000000000E+00  0.39999999673E+01  0.40000000000E+01  0.51109989000E-03 0. -1.
     -623   -1    0    0    0    0  0.00000000000E+00  0.00000000000E+00  0.12525980253E-10  0.17130000000E+03  0.17130000000E+03 0. -1.
       11    1    1    2    0    0  0.26121727025E-01  0.97596645643E-01  0.17248067942E+00  0.19989321114E+00  0.51109989000E-03 0. -1.
     -623    1    1    2    0    0  0.12819320541E+00 -0.82394577606E-01  0.78370584939E-01  0.17130008571E+03  0.17130000000E+03 0. -1.
      622    1    1    2    0    0 -0.15431493243E+00 -0.15202068037E-01  0.37491487030E+01  0.38000210787E+01  0.60000000000E+00 0. -1.
</event>
<event>
 5   0  0.1014700E+04  0.9118800E+02  0.7818608E-02  0.1180000E+00
       11   -1    0    0    0    0  0.00000000000E+00  0.00000000000E+00  0.39999999673E+01  0.40000000000E+01  0.51109989000E-03 0.  1.
     -623   -1    0    0    0    0  0.00000000000E+00  0.00000000000E+00  0.12525980253E-10  0.17130000000E+03  0.17130000000E+03 0. -1.
       11    1    1    2    0    0 -0.43342867908E-02  0.18061810092E-01  0.19878231593E-02  0.18687634676E-01  0.51109989000E-03 0.  1.
     -623    1    1    2    0    0  0.47234640757E-01  0.40400537448E-01  0.62861799944E-01  0.17130002281E+03  0.17130000000E+03 0. -1.
      622    1    1    2    0    0 -0.42900353966E-01 -0.58462347540E-01  0.39351503443E+01  0.39812895547E+01  0.60000000000E+00 0.  1.
</event>
<event>
 5   0  0.1014700E+04  0.9118800E+02  0.7818608E-02  0.1180000E+00
       11   -1    0    0    0    0  0.00000000000E+00  0.00000000000E+00  0.39999999673E+01  0.40000000000E+01  0.51109989000E-03 0.  1.
     -623   -1    0    0    0    0  0.00000000000E+00  0.00000000000E+00  0.12525980253E-10  0.17130000000E+03  0.17130000000E+03 0.  1.
       11    1    1    2    0    0 -0.10956470332E+00  0.87868663214E-01 -0.19989957088E-01  0.14186326444E+00  0.51109989000E-03 0.  1.
     -623    1    1    2    0    0 -0.39224899783E+00  0.15535553911E+00  0.25053081175E+00  0.17130070274E+03  0.17130000000E+03 0.  1.
      622    1    1    2    0    0  0.50181370115E+00 -0.24322420233E+00  0.37694591127E+01  0.38574339924E+01  0.60000000000E+00 0.  1.
</event>
<event>
 5   0  0.1014700E+04  0.9118800E+02  0.7818608E-02  0.1180000E+00
       11   -1    0    0    0    0  0.00000000000E+00  0.00000000000E+00  0.39999999673E+01  0.40000000000E+01  0.51109989000E-03 0. -1.
     -623   -1    0    0    0    0  0.00000000000E+00  0.00000000000E+00  0.12525980253E-10  0.17130000000E+03  0.17130000000E+03 0.  1.
       11    1    1    2    0    0 -0.92049680497E-01 -0.42902906200E-02  0.51233096647E+00  0.52055242838E+00  0.51109989000E-03 0. -1.
     -623    1    1    2    0    0  0.81473374812E-01  0.13304982636E+00  0.62863916500E-01  0.17130008258E+03  0.17130000000E+03 0.  1.
      622    1    1    2    0    0  0.10576305685E-01 -0.12875953574E+00  0.34248050844E+01  0.34793649913E+01  0.60000000000E+00 0. -1.
</event>
<event>
 5   0  0.1014700E+04  0.9118800E+02  0.7818608E-02  0.1180000E+00
       11   -1    0    0    0    0  0.00000000000E+00  0.00000000000E+00  0.39999999673E+01  0.40000000000E+01  0.51109989000E-03 0. -1.
     -623   -1    0    0    0    0  0.00000000000E+00  0.00000000000E+00  0.12525980253E-10  0.17130000000E+03  0.17130000000E+03 0.  1.
       11    1    1    2    0    0 -0.56164695422E-01 -0.41279476032E-01  0.33338811898E+00  0.34059707464E+00  0.51109989000E-03 0. -1.
     -623    1    1    2    0    0  0.73513622781E-02 -0.42705397897E-01  0.58055148660E-01  0.17130001532E+03  0.17130000000E+03 0.  1.
      622    1    1    2    0    0  0.48813333144E-01  0.83984873930E-01  0.36085566997E+01  0.36593876066E+01  0.60000000000E+00 0.  0.
</event>
<event>
 5   0  0.1014700E+04  0.9118800E+02  0.7818608E-02  0.1180000E+00
       11   -1    0    0    0    0  0.00000000000E+00  0.00000000000E+00  0.39999999673E+01  0.40000000000E+01  0.51109989000E-03 0.  1.
     -623   -1    0    0    0    0  0.00000000000E+00  0.00000000000E+00  0.12525980253E-10  0.17130000000E+03  0.17130000000E+03 0. -1.
       11    1    1    2    0    0  0.41278659082E-02 -0.23145504623E-01  0.29411055355E-01  0.37656673516E-01  0.51109989000E-03 0.  1.
     -623    1    1    2    0    0 -0.45234315101E-01  0.48005179792E-01  0.54252846769E-01  0.17130002129E+03  0.17130000000E+03 0. -1.
      622    1    1    2    0    0  0.41106449192E-01 -0.24859675169E-01  0.39163360652E+01  0.39623220363E+01  0.60000000000E+00 0.  1.
</event>
<event>
 5   0  0.1014700E+04  0.9118800E+02  0.7818608E-02  0.1180000E+00
       11   -1    0    0    0    0  0.00000000000E+00  0.00000000000E+00  0.39999999673E+01  0.40000000000E+01  0.51109989000E-03 0.  1.
     -623   -1    0    0    0    0  0.00000000000E+00  0.00000000000E+00  0.12525980253E-10  0.17130000000E+03  0.17130000000E+03 0.  1.
       11    1    1    2    0    0  0.51207864006E-01  0.10681522182E-02  0.81061860698E-01  0.95888856317E-01  0.51109989000E-03 0.  1.
     -623    1    1    2    0    0 -0.18384238058E-01 -0.12183016499E-01  0.61375929334E-01  0.17130001242E+03  0.17130000000E+03 0.  1.
      622    1    1    2    0    0 -0.32823625948E-01  0.11114864280E-01  0.38575621773E+01  0.39040987286E+01  0.60000000000E+00 0.  1.
</event>
<event>
 5   0  0.1014700E+04  0.9118800E+02  0.7818608E-02  0.1180000E+00
       11   -1    0    0    0    0  0.00000000000E+00  0.00000000000E+00  0.39999999673E+01  0.40000000000E+01  0.51109989000E-03 0.  1.
     -623   -1    0    0    0    0  0.00000000000E+00  0.00000000000E+00  0.12525980253E-10  0.17130000000E+03  0.17130000000E+03 0. -1.
       11    1    1    2    0    0  0.39598868892E-01 -0.74152357366E-01  0.11490134323E+00  0.14237001937E+00  0.51109989000E-03 0.  1.
     -623    1    1    2    0    0  0.26514921631E-01  0.34926351105E-01  0.75212975175E-01  0.17130002212E+03  0.17130000000E+03 0. -1.
      622    1    1    2    0    0 -0.66113790524E-01  0.39226006261E-01  0.38098856490E+01  0.38576078560E+01  0.60000000000E+00 0.  1.
</event>
<event>
 5   0  0.1014700E+04  0.9118800E+02  0.7818608E-02  0.1180000E+00
       11   -1    0    0    0    0  0.00000000000E+00  0.00000000000E+00  0.39999999673E+01  0.40000000000E+01  0.51109989000E-03 0.  1.
     -623   -1    0    0    0    0  0.00000000000E+00  0.00000000000E+00  0.12525980253E-10  0.17130000000E+03  0.17130000000E+03 0.  1.
       11    1    1    2    0    0 -0.96315854555E-01  0.34570482758E-01  0.51544625679E+00  0.52550639100E+00  0.51109989000E-03 0.  1.
     -623    1    1    2    0    0 -0.95546171311E-01 -0.74748299410E-01  0.67934263383E-01  0.17130005643E+03  0.17130000000E+03 0.  1.
      622    1    1    2    0    0  0.19186202587E+00  0.40177816652E-01  0.34166194472E+01  0.34744371833E+01  0.60000000000E+00 0.  1.
</event>
<event>
 5   0  0.1014700E+04  0.9118800E+02  0.7818608E-02  0.1180000E+00
       11   -1    0    0    0    0  0.00000000000E+00  0.00000000000E+00  0.39999999673E+01  0.40000000000E+01  0.51109989000E-03 0.  1.
     -623   -1    0    0    0    0  0.00000000000E+00  0.00000000000E+00  0.12525980253E-10  0.17130000000E+03  0.17130000000E+03 0. -1.
       11    1    1    2    0    0 -0.28899398524E-03  0.82015827264E-01  0.54256603083E-01  0.98339817159E-01  0.51109989000E-03 0.  1.
     -623    1    1    2    0    0 -0.92504345916E-01 -0.82252755527E-01  0.91680432381E-01  0.17130006926E+03  0.17130000000E+03 0. -1.
      622    1    1    2    0    0  0.92793339902E-01  0.23692826307E-03  0.38540629319E+01  0.39015909246E+01  0.60000000000E+00 0.  1.
</event>
<event>
 5   0  0.1014700E+04  0.9118800E+02  0.7818608E-02  0.1180000E+00
       11   -1    0    0    0    0  0.00000000000E+00  0.00000000000E+00  0.39999999673E+01  0.40000000000E+01  0.51109989000E-03 0.  1.
     -623   -1    0    0    0    0  0.00000000000E+00  0.00000000000E+00  0.12525980253E-10  0.17130000000E+03  0.17130000000E+03 0.  1.
       11    1    1    2    0    0 -0.19606661596E-01 -0.68750294903E-02  0.28687040894E-01  0.35424493614E-01  0.51109989000E-03 0.  1.
     -623    1    1    2    0    0  0.20336802237E-01  0.16946671280E-01  0.52425693366E-01  0.17130001007E+03  0.17130000000E+03 0.  1.
      622    1    1    2    0    0 -0.73014064037E-03 -0.10071641790E-01  0.39188872331E+01  0.39645654386E+01  0.60000000000E+00 0.  1.
</event>
<event>
 5   0  0.1014700E+04  0.9118800E+02  0.7818608E-02  0.1180000E+00
       11   -1    0    0    0    0  0.00000000000E+00  0.00000000000E+00  0.39999999673E+01  0.40000000000E+01  0.51109989000E-03 0.  1.
     -623   -1    0    0    0    0  0.00000000000E+00  0.00000000000E+00  0.12525980253E-10  0.17130000000E+03  0.17130000000E+03 0. -1.
       11    1    1    2    0    0  0.51756551832E-01 -0.12856110550E+00  0.75811796771E+00  0.77068139506E+00  0.51109989000E-03 0.  1.
     -623    1    1    2    0    0 -0.26347683161E-01 -0.67989952182E-01  0.75020083815E-01  0.17130003195E+03  0.17130000000E+03 0. -1.
      622    1    1    2    0    0 -0.25408868670E-01  0.19655105768E+00  0.31668619158E+01  0.32292866585E+01  0.60000000000E+00 0.  1.
</event>
<event>
 5   0  0.1014700E+04  0.9118800E+02  0.7818608E-02  0.1180000E+00
       11   -1    0    0    0    0  0.00000000000E+00  0.00000000000E+00  0.39999999673E+01  0.40000000000E+01  0.51109989000E-03 0.  1.
     -623   -1    0    0    0    0  0.00000000000E+00  0.00000000000E+00  0.12525980253E-10  0.17130000000E+03  0.17130000000E+03 0.  1.
       11    1    1    2    0    0  0.47040309930E-01  0.51428438725E-01  0.26571347831E+00  0.27470272813E+00  0.51109989000E-03 0.  1.
     -623    1    1    2    0    0 -0.11911243137E+00  0.12258499646E-02  0.58760780378E-01  0.17130005149E+03  0.17130000000E+03 0.  1.
      622    1    1    2    0    0  0.72072121444E-01 -0.52654288689E-01  0.36755257087E+01  0.37252457771E+01  0.60000000000E+00 0.  1.
</event>
<event>
 5   0  0.1014700E+04  0.9118800E+02  0.7818608E-02  0.1180000E+00
       11   -1    0    0    0    0  0.00000000000E+00  0.00000000000E+00  0.39999999673E+01  0.40000000000E+01  0.51109989000E-03 0.  1.
     -623   -1    0    0    0    0  0.00000000000E+00  0.00000000000E+00  0.12525980253E-10  0.17130000000E+03  0.17130000000E+03 0. -1.
       11    1    1    2    0    0  0.12000753156E-01  0.56549715875E-01  0.68831540046E-01  0.89888434004E-01  0.51109989000E-03 0.  1.
     -623    1    1    2    0    0  0.73285789400E-02 -0.74654128435E-01  0.67486418435E-01  0.17130002972E+03  0.17130000000E+03 0. -1.
      622    1    1    2    0    0 -0.19329332096E-01  0.18104412560E-01  0.38636820089E+01  0.39100818481E+01  0.60000000000E+00 0.  1.
</event>
<event>
 5   0  0.1014700E+04  0.9118800E+02  0.7818608E-02  0.1180000E+00
       11   -1    0    0    0    0  0.00000000000E+00  0.00000000000E+00  0.39999999673E+01  0.40000000000E+01  0.51109989000E-03 0. -1.
     -623   -1    0    0    0    0  0.00000000000E+00  0.00000000000E+00  0.12525980253E-10  0.17130000000E+03  0.17130000000E+03 0.  1.
       11    1    1    2    0    0  0.21074874067E-01 -0.25888883280E-01 -0.20097423153E-01  0.38968605760E-01  0.51109989000E-03 0. -1.
     -623    1    1    2    0    0  0.71666402229E-02  0.25822417065E-01  0.10490888665E+00  0.17130003422E+03  0.17130000000E+03 0.  1.
      622    1    1    2    0    0 -0.28241514289E-01  0.66466215095E-04  0.39151885039E+01  0.39609971735E+01  0.60000000000E+00 0. -1.
</event>
<event>
 5   0  0.1014700E+04  0.9118800E+02  0.7818608E-02  0.1180000E+00
       11   -1    0    0    0    0  0.00000000000E+00  0.00000000000E+00  0.39999999673E+01  0.40000000000E+01  0.51109989000E-03 0.  1.
     -623   -1    0    0    0    0  0.00000000000E+00  0.00000000000E+00  0.12525980253E-10  0.17130000000E+03  0.17130000000E+03 0.  1.
       11    1    1    2    0    0  0.46724701265E-01 -0.60831477385E-03  0.14369083530E+00  0.15109892497E+00  0.51109989000E-03 0.  1.
     -623    1    1    2    0    0  0.57003053868E-02 -0.22482935387E-01  0.54904381348E-01  0.17130001037E+03  0.17130000000E+03 0.  1.
      622    1    1    2    0    0 -0.52425006651E-01  0.23091250161E-01  0.38014047507E+01  0.38488907059E+01  0.60000000000E+00 0.  1.
</event>
<event>
 5   0  0.1014700E+04  0.9118800E+02  0.7818608E-02  0.1180000E+00
       11   -1    0    0    0    0  0.00000000000E+00  0.00000000000E+00  0.39999999673E+01  0.40000000000E+01  0.51109989000E-03 0. -1.
     -623   -1    0    0    0    0  0.00000000000E+00  0.00000000000E+00  0.12525980253E-10  0.17130000000E+03  0.17130000000E+03 0.  1.
       11    1    1    2    0    0 -0.52386871779E-02  0.18977572285E-01  0.51580809378E-01  0.55212618235E-01  0.51109989000E-03 0. -1.
     -623    1    1    2    0    0  0.33978864669E-01 -0.50388624279E-01  0.49779303647E-01  0.17130001801E+03  0.17130000000E+03 0.  1.
      622    1    1    2    0    0 -0.28740177491E-01  0.31411051993E-01  0.38986398543E+01  0.39447693679E+01  0.60000000000E+00 0. -1.
</event>
<event>
 5   0  0.1014700E+04  0.9118800E+02  0.7818608E-02  0.1180000E+00
       11   -1    0    0    0    0  0.00000000000E+00  0.00000000000E+00  0.39999999673E+01  0.40000000000E+01  0.51109989000E-03 0. -1.
     -623   -1    0    0    0    0  0.00000000000E+00  0.00000000000E+00  0.12525980253E-10  0.17130000000E+03  0.17130000000E+03 0.  1.
       11    1    1    2    0    0 -0.42435466473E-01  0.76929210046E-01  0.28552336425E+00  0.29873520872E+00  0.51109989000E-03 0. -1.
     -623    1    1    2    0    0  0.24210584198E-01 -0.23103921303E-01  0.62624633238E-01  0.17130001472E+03  0.17130000000E+03 0.  1.
      622    1    1    2    0    0  0.18224882275E-01 -0.53825288743E-01  0.36518519699E+01  0.37012500750E+01  0.60000000000E+00 0. -1.
</event>
<event>
 5   0  0.1014700E+04  0.9118800E+02  0.7818608E-02  0.1180000E+00
       11   -1    0    0    0    0  0.00000000000E+00  0.00000000000E+00  0.39999999673E+01  0.40000000000E+01  0.51109989000E-03 0. -1.
     -623   -1    0    0    0    0  0.00000000000E+00  0.00000000000E+00  0.12525980253E-10  0.17130000000E+03  0.17130000000E+03 0.  1.
       11    1    1    2    0    0  0.11097252740E-01 -0.83656740518E-01  0.47337097291E+00  0.48083462695E+00  0.51109989000E-03 0. -1.
     -623    1    1    2    0    0 -0.59282013137E-01  0.19394367100E-01  0.59941849774E-01  0.17130002184E+03  0.17130000000E+03 0.  1.
      622    1    1    2    0    0  0.48184760397E-01  0.64262373418E-01  0.34666871447E+01  0.35191435297E+01  0.60000000000E+00 0. -1.
</event>
<event>
 5   0  0.1014700E+04  0.9118800E+02  0.7818608E-02  0.1180000E+00
       11   -1    0    0    0    0  0.00000000000E+00  0.00000000000E+00  0.39999999673E+01  0.40000000000E+01  0.51109989000E-03 0.  1.
     -623   -1    0    0    0    0  0.00000000000E+00  0.00000000000E+00  0.12525980253E-10  0.17130000000E+03  0.17130000000E+03 0.  1.
       11    1    1    2    0    0 -0.21209748166E+00  0.39478019643E-01  0.82878828834E+00  0.85640769723E+00  0.51109989000E-03 0.  1.
     -623    1    1    2    0    0  0.33436713545E+00 -0.25753316524E-01  0.88221613434E-01  0.17130035099E+03  0.17130000000E+03 0.  1.
      622    1    1    2    0    0 -0.12226965379E+00 -0.13724703118E-01  0.30829900656E+01  0.31432413175E+01  0.60000000000E+00 0.  1.
</event>
<event>
 5   0  0.1014700E+04  0.9118800E+02  0.7818608E-02  0.1180000E+00
       11   -1    0    0    0    0  0.00000000000E+00  0.00000000000E+00  0.39999999673E+01  0.40000000000E+01  0.51109989000E-03 0.  1.
     -623   -1    0    0    0    0  0.00000000000E+00  0.00000000000E+00  0.12525980253E-10  0.17130000000E+03  0.17130000000E+03 0.  1.
       11    1    1    2    0    0 -0.99461352733E-02  0.33971211994E-01  0.11995519293E+00  0.12506989400E+00  0.51109989000E-03 0.  1.
     -623    1    1    2    0    0 -0.20896102007E-02 -0.17249045322E-01  0.51913240007E-01  0.17130000875E+03  0.17130000000E+03 0.  1.
      622    1    1    2    0    0  0.12035745474E-01 -0.16722166671E-01  0.38281315344E+01  0.38749213585E+01  0.60000000000E+00 0.  1.
</event>
<event>
 5   0  0.1014700E+04  0.9118800E+02  0.7818608E-02  0.1180000E+00
       11   -1    0    0    0    0  0.00000000000E+00  0.00000000000E+00  0.39999999673E+01  0.40000000000E+01  0.51109989000E-03 0.  1.
     -623   -1    0    0    0    0  0.00000000000E+00  0.00000000000E+00  0.12525980253E-10  0.17130000000E+03  0.17130000000E+03 0. -1.
       11    1    1    2    0    0 -0.30846869747E-02  0.12157743574E+00  0.36264474956E+00  0.38249452778E+00  0.51109989000E-03 0.  1.
     -623    1    1    2    0    0  0.34463792954E-01  0.67581210469E-02  0.72421225297E-01  0.17130001891E+03  0.17130000000E+03 0. -1.
      622    1    1    2    0    0 -0.31379105979E-01 -0.12833555679E+00  0.35649339925E+01  0.36174865631E+01  0.60000000000E+00 0.  1.
</event>
<event>
 5   0  0.1014700E+04  0.9118800E+02  0.7818608E-02  0.1180000E+00
       11   -1    0    0    0    0  0.00000000000E+00  0.00000000000E+00  0.39999999673E+01  0.40000000000E+01  0.51109989000E-03 0.  1.
     -623   -1    0    0    0    0  0.00000000000E+00  0.00000000000E+00  0.12525980253E-10  0.17130000000E+03  0.17130000000E+03 0. -1.
       11    1    1    2    0    0 -0.78782557940E-01 -0.10227585749E+00  0.16101599511E+00  0.20638181695E+00  0.51109989000E-03 0.  1.
     -623    1    1    2    0    0 -0.12900559497E-01  0.81874416795E-01  0.94338772400E-01  0.17130004603E+03  0.17130000000E+03 0. -1.
      622    1    1    2    0    0  0.91683117437E-01  0.20401440697E-01  0.37446451999E+01  0.37935721537E+01  0.60000000000E+00 0.  1.
</event>
<event>
 5   0  0.1014700E+04  0.9118800E+02  0.7818608E-02  0.1180000E+00
       11   -1    0    0    0    0  0.00000000000E+00  0.00000000000E+00  0.39999999673E+01  0.40000000000E+01  0.51109989000E-03 0.  1.
     -623   -1    0    0    0    0  0.00000000000E+00  0.00000000000E+00  0.12525980253E-10  0.17130000000E+03  0.17130000000E+03 0.  1.
       11    1    1    2    0    0  0.55167169693E-01  0.80207186858E-01  0.28456802357E+00  0.30075875830E+00  0.51109989000E-03 0.  1.
     -623    1    1    2    0    0  0.36487814286E-02 -0.88620725844E-01  0.65693243774E-01  0.17130003556E+03  0.17130000000E+03 0.  1.
      622    1    1    2    0    0 -0.58815951122E-01  0.84135389860E-02  0.36497387000E+01  0.36992056826E+01  0.60000000000E+00 0.  1.
</event>
<event>
 5   0  0.1014700E+04  0.9118800E+02  0.7818608E-02  0.1180000E+00
       11   -1    0    0    0    0  0.00000000000E+00  0.00000000000E+00  0.39999999673E+01  0.40000000000E+01  0.51109989000E-03 0.  1.
     -623   -1    0    0    0    0  0.00000000000E+00  0.00000000000E+00  0.12525980253E-10  0.17130000000E+03  0.17130000000E+03 0. -1.
       11    1    1    2    0    0 -0.55983917517E-02 -0.12078041876E+00  0.32861717533E+00  0.35015533794E+00  0.51109989000E-03 0.  1.
     -623    1    1    2    0    0  0.33531529458E-01  0.23974291745E-01  0.72623868226E-01  0.17130002035E+03  0.17130000000E+03 0. -1.
      622    1    1    2    0    0 -0.27933137706E-01  0.96806127014E-01  0.35987589238E+01  0.36498243078E+01  0.60000000000E+00 0.  1.
</event>
<event>
 5   0  0.1014700E+04  0.9118800E+02  0.7818608E-02  0.1180000E+00
       11   -1    0    0    0    0  0.00000000000E+00  0.00000000000E+00  0.39999999673E+01  0.40000000000E+01  0.51109989000E-03 0. -1.
     -623   -1    0    0    0    0  0.00000000000E+00  0.00000000000E+00  0.12525980253E-10  0.17130000000E+03  0.17130000000E+03 0.  1.
       11    1    1    2    0    0 -0.51480374448E-01  0.10290118818E-01  0.33833775351E+00  0.34238693341E+00  0.51109989000E-03 0. -1.
     -623    1    1    2    0    0  0.12141772685E-01 -0.58382173664E-01  0.54151377313E-01  0.17130001894E+03  0.17130000000E+03 0.  1.
      622    1    1    2    0    0  0.39338601763E-01  0.48092054846E-01  0.36075108365E+01  0.36575941283E+01  0.60000000000E+00 0. -1.
</event>
<event>
 5   0  0.1014700E+04  0.9118800E+02  0.7818608E-02  0.1180000E+00
       11   -1    0    0    0    0  0.00000000000E+00  0.00000000000E+00  0.39999999673E+01  0.40000000000E+01  0.51109989000E-03 0. -1.
     -623   -1    0    0    0    0  0.00000000000E+00  0.00000000000E+00  0.12525980253E-10  0.17130000000E+03  0.17130000000E+03 0.  1.
       11    1    1    2    0    0  0.55084010372E-01  0.85762975434E-01  0.24610691824E+00  0.26638020306E+00  0.51109989000E-03 0. -1.
     -623    1    1    2    0    0 -0.11945631458E+00 -0.72759463508E-01  0.69456544936E-01  0.17130007118E+03  0.17130000000E+03 0.  1.
      622    1    1    2    0    0  0.64372304208E-01 -0.13003511925E-01  0.36844365042E+01  0.37335486120E+01  0.60000000000E+00 0. -1.
</event>
<event>
 5   0  0.1014700E+04  0.9118800E+02  0.7818608E-02  0.1180000E+00
       11   -1    0    0    0    0  0.00000000000E+00  0.00000000000E+00  0.39999999673E+01  0.40000000000E+01  0.51109989000E-03 0.  1.
     -623   -1    0    0    0    0  0.00000000000E+00  0.00000000000E+00  0.12525980253E-10  0.17130000000E+03  0.17130000000E+03 0. -1.
       11    1    1    2    0    0  0.58681127566E-01  0.24256820994E-01  0.10404674277E+00  0.12189279716E+00  0.51109989000E-03 0.  1.
     -623    1    1    2    0    0 -0.12752538965E-01  0.10043000531E+00  0.66889903218E-01  0.17130004297E+03  0.17130000000E+03 0. -1.
      622    1    1    2    0    0 -0.45928588601E-01 -0.12468682630E+00  0.38290633214E+01  0.38780642283E+01  0.60000000000E+00 0.  1.
</event>
<event>
 5   0  0.1014700E+04  0.9118800E+02  0.7818608E-02  0.1180000E+00
       11   -1    0    0    0    0  0.00000000000E+00  0.00000000000E+00  0.39999999673E+01  0.40000000000E+01  0.51109989000E-03 0. -1.
     -623   -1    0    0    0    0  0.00000000000E+00  0.00000000000E+00  0.12525980253E-10  0.17130000000E+03  0.17130000000E+03 0. -1.
       11    1    1    2    0    0 -0.72799376171E-02 -0.10974066117E-01 -0.59434338645E-02  0.14457290481E-01  0.51109989000E-03 0. -1.
     -623    1    1    2    0    0  0.23481691138E-01  0.25229492634E-02  0.65879592701E-01  0.17130001430E+03  0.17130000000E+03 0. -1.
      622    1    1    2    0    0 -0.16201753521E-01  0.84511168533E-02  0.39400638085E+01  0.39855284133E+01  0.60000000000E+00 0. -1.
</event>
<event>
 5   0  0.1014700E+04  0.9118800E+02  0.7818608E-02  0.1180000E+00
       11   -1    0    0    0    0  0.00000000000E+00  0.00000000000E+00  0.39999999673E+01  0.40000000000E+01  0.51109989000E-03 0. -1.
     -623   -1    0    0    0    0  0.00000000000E+00  0.00000000000E+00  0.12525980253E-10  0.17130000000E+03  0.17130000000E+03 0. -1.
       11    1    1    2    0    0  0.33920552348E-01 -0.79057399872E-02  0.58462273164E-01  0.68052944107E-01  0.51109989000E-03 0. -1.
     -623    1    1    2    0    0 -0.21549804695E-01  0.35080095366E-01  0.55768030951E-01  0.17130001403E+03  0.17130000000E+03 0. -1.
      622    1    1    2    0    0 -0.12370747654E-01 -0.27174355379E-01  0.38857696632E+01  0.39319330306E+01  0.60000000000E+00 0. -1.
</event>
<event>
 5   0  0.1014700E+04  0.9118800E+02  0.7818608E-02  0.1180000E+00
       11   -1    0    0    0    0  0.00000000000E+00  0.00000000000E+00  0.39999999673E+01  0.40000000000E+01  0.51109989000E-03 0.  1.
     -623   -1    0    0    0    0  0.00000000000E+00  0.00000000000E+00  0.12525980253E-10  0.17130000000E+03  0.17130000000E+03 0.  1.
       11    1    1    2    0    0  0.80119566765E-01 -0.23250433473E-01  0.22674385995E+00  0.24160456718E+00  0.51109989000E-03 0.  1.
     -623    1    1    2    0    0  0.39837326967E-01  0.72770902108E-02  0.65054037458E-01  0.17130001714E+03  0.17130000000E+03 0.  1.
      622    1    1    2    0    0 -0.11995689373E+00  0.15973343262E-01  0.37082020699E+01  0.37583782933E+01  0.60000000000E+00 0.  1.
</event>
<event>
 5   0  0.1014700E+04  0.9118800E+02  0.7818608E-02  0.1180000E+00
       11   -1    0    0    0    0  0.00000000000E+00  0.00000000000E+00  0.39999999673E+01  0.40000000000E+01  0.51109989000E-03 0.  1.
     -623   -1    0    0    0    0  0.00000000000E+00  0.00000000000E+00  0.12525980253E-10  0.17130000000E+03  0.17130000000E+03 0. -1.
       11    1    1    2    0    0 -0.16962264216E-01  0.49245389446E-01  0.21855785062E+00  0.22467893110E+00  0.51109989000E-03 0.  1.
     -623    1    1    2    0    0 -0.40165997467E-01 -0.38242732477E-01  0.54576001149E-01  0.17130001767E+03  0.17130000000E+03 0. -1.
      622    1    1    2    0    0  0.57128261682E-01 -0.11002656969E-01  0.37268661156E+01  0.37753033971E+01  0.60000000000E+00 0.  1.
</event>
<event>
 5   0  0.1014700E+04  0.9118800E+02  0.7818608E-02  0.1180000E+00
       11   -1    0    0    0    0  0.00000000000E+00  0.00000000000E+00  0.39999999673E+01  0.40000000000E+01  0.51109989000E-03 0. -1.
     -623   -1    0    0    0    0  0.00000000000E+00  0.00000000000E+00  0.12525980253E-10  0.17130000000E+03  0.17130000000E+03 0. -1.
       11    1    1    2    0    0  0.10792449712E+00 -0.45890479868E-01  0.21395948052E+00  0.24399293790E+00  0.51109989000E-03 0. -1.
     -623    1    1    2    0    0 -0.29595826628E-01  0.10814472333E+00  0.79672553547E-01  0.17130005522E+03  0.17130000000E+03 0. -1.
      622    1    1    2    0    0 -0.78328670491E-01 -0.62254243458E-01  0.37063679333E+01  0.37559518405E+01  0.60000000000E+00 0. -1.
</event>
<event>
 5   0  0.1014700E+04  0.9118800E+02  0.7818608E-02  0.1180000E+00
       11   -1    0    0    0    0  0.00000000000E+00  0.00000000000E+00  0.39999999673E+01  0.40000000000E+01  0.51109989000E-03 0. -1.
     -623   -1    0    0    0    0  0.00000000000E+00  0.00000000000E+00  0.12525980253E-10  0.17130000000E+03  0.17130000000E+03 0. -1.
       11    1    1    2    0    0 -0.14015869184E-01 -0.56364948766E-01  0.33275741644E-01  0.66940184062E-01  0.51109989000E-03 0. -1.
     -623    1    1    2    0    0  0.66486480262E-01 -0.78249949729E-01  0.82437023498E-01  0.17130005061E+03  0.17130000000E+03 0. -1.
      622    1    1    2    0    0 -0.52470611078E-01  0.13461489849E+00  0.38842872022E+01  0.39330092048E+01  0.60000000000E+00 0. -1.
</event>
<event>
 5   0  0.1014700E+04  0.9118800E+02  0.7818608E-02  0.1180000E+00
       11   -1    0    0    0    0  0.00000000000E+00  0.00000000000E+00  0.39999999673E+01  0.40000000000E+01  0.51109989000E-03 0. -1.
     -623   -1    0    0    0    0  0.00000000000E+00  0.00000000000E+00  0.12525980253E-10  0.17130000000E+03  0.17130000000E+03 0.  1.
       11    1    1    2    0    0 -0.57939321893E-02 -0.51437474606E-02 -0.14434911209E-01  0.16390719108E-01  0.51109989000E-03 0. -1.
     -623    1    1    2    0    0  0.32057592294E-01 -0.14072643689E+00  0.79140108762E-01  0.17130007909E+03  0.17130000000E+03 0.  1.
      622    1    1    2    0    0 -0.26263660105E-01  0.14587018435E+00  0.39352947698E+01  0.39835301952E+01  0.60000000000E+00 0. -1.
</event>
<event>
 5   0  0.1014700E+04  0.9118800E+02  0.7818608E-02  0.1180000E+00
       11   -1    0    0    0    0  0.00000000000E+00  0.00000000000E+00  0.39999999673E+01  0.40000000000E+01  0.51109989000E-03 0. -1.
     -623   -1    0    0    0    0  0.00000000000E+00  0.00000000000E+00  0.12525980253E-10  0.17130000000E+03  0.17130000000E+03 0.  1.
       11    1    1    2    0    0  0.52440377114E-01 -0.63558628184E-01  0.70191567870E+00  0.70673585843E+00  0.51109989000E-03 0. -1.
     -623    1    1    2    0    0 -0.60204057288E-01 -0.54663764313E-03  0.60603995578E-01  0.17130002130E+03  0.17130000000E+03 0.  1.
      622    1    1    2    0    0  0.77636801737E-02  0.64105265827E-01  0.32374802931E+01  0.32932428407E+01  0.60000000000E+00 0. -1.
</event>
<event>
 5   0  0.1014700E+04  0.9118800E+02  0.7818608E-02  0.1180000E+00
       11   -1    0    0    0    0  0.00000000000E+00  0.00000000000E+00  0.39999999673E+01  0.40000000000E+01  0.51109989000E-03 0. -1.
     -623   -1    0    0    0    0  0.00000000000E+00  0.00000000000E+00  0.12525980253E-10  0.17130000000E+03  0.17130000000E+03 0. -1.
       11    1    1    2    0    0  0.28736681079E-02 -0.12672045533E-01  0.10520187661E+00  0.10600252248E+00  0.51109989000E-03 0. -1.
     -623    1    1    2    0    0  0.14027785099E-02  0.33828586151E-01  0.47373836509E-01  0.17130000990E+03  0.17130000000E+03 0. -1.
      622    1    1    2    0    0 -0.42764466178E-02 -0.21156540618E-01  0.38474242542E+01  0.38939875808E+01  0.60000000000E+00 0. -1.
</event>
<event>
 5   0  0.1014700E+04  0.9118800E+02  0.7818608E-02  0.1180000E+00
       11   -1    0    0    0    0  0.00000000000E+00  0.00000000000E+00  0.39999999673E+01  0.40000000000E+01  0.51109989000E-03 0. -1.
     -623   -1    0    0    0    0  0.00000000000E+00  0.00000000000E+00  0.12525980253E-10  0.17130000000E+03  0.17130000000E+03 0. -1.
       11    1    1    2    0    0 -0.18955140368E-01 -0.19543781685E-01  0.16649491666E-01  0.31917448907E-01  0.51109989000E-03 0. -1.
     -623    1    1    2    0    0 -0.12865799459E-01  0.27702553724E-01  0.61043493192E-01  0.17130001360E+03  0.17130000000E+03 0. -1.
      622    1    1    2    0    0  0.31820939827E-01 -0.81587720390E-02  0.39223069825E+01  0.39680689514E+01  0.60000000000E+00 0. -1.
</event>
<event>
 5   0  0.1014700E+04  0.9118800E+02  0.7818608E-02  0.1180000E+00
       11   -1    0    0    0    0  0.00000000000E+00  0.00000000000E+00  0.39999999673E+01  0.40000000000E+01  0.51109989000E-03 0. -1.
     -623   -1    0    0    0    0  0.00000000000E+00  0.00000000000E+00  0.12525980253E-10  0.17130000000E+03  0.17130000000E+03 0. -1.
       11    1    1    2    0    0 -0.41427286936E-01 -0.28409097275E-01  0.20397870408E+00  0.21007348679E+00  0.51109989000E-03 0. -1.
     -623    1    1    2    0    0 -0.10061392182E-01  0.68924653849E-01  0.54487172457E-01  0.17130002283E+03  0.17130000000E+03 0. -1.
      622    1    1    2    0    0  0.51488679118E-01 -0.40515556574E-01  0.37415340908E+01  0.37899036857E+01  0.60000000000E+00 0. -1.
</event>
<event>
 5   0  0.1014700E+04  0.9118800E+02  0.7818608E-02  0.1180000E+00
       11   -1    0    0    0    0  0.00000000000E+00  0.00000000000E+00  0.39999999673E+01  0.40000000000E+01  0.51109989000E-03 0.  1.
     -623   -1    0    0    0    0  0.00000000000E+00  0.00000000000E+00  0.12525980253E-10  0.17130000000E+03  0.17130000000E+03 0. -1.
       11    1    1    2    0    0 -0.69816871005E-01  0.27504673989E-01  0.42012831513E+00  0.42677741853E+00  0.51109989000E-03 0.  1.
     -623    1    1    2    0    0  0.99583620492E-02 -0.84634734031E-02  0.57954506054E-01  0.17130001030E+03  0.17130000000E+03 0. -1.
      622    1    1    2    0    0  0.59858508956E-01 -0.19041200585E-01  0.35219171462E+01  0.35732122793E+01  0.60000000000E+00 0.  1.
</event>
<event>
 5   0  0.1014700E+04  0.9118800E+02  0.7818608E-02  0.1180000E+00
       11   -1    0    0    0    0  0.00000000000E+00  0.00000000000E+00  0.39999999673E+01  0.40000000000E+01  0.51109989000E-03 0.  1.
     -623   -1    0    0    0    0  0.00000000000E+00  0.00000000000E+00  0.12525980253E-10  0.17130000000E+03  0.17130000000E+03 0. -1.
       11    1    1    2    0    0 -0.21166426845E-01 -0.46345109998E-01  0.58546988408E-02  0.51287674618E-01  0.51109989000E-03 0.  1.
     -623    1    1    2    0    0  0.15055845262E-01  0.35622020005E-01  0.91332187611E-01  0.17130002871E+03  0.17130000000E+03 0. -1.
      622    1    1    2    0    0  0.61105815829E-02  0.10723089993E-01  0.39028130809E+01  0.39486836121E+01  0.60000000000E+00 0.  1.
</event>
<event>
 5   0  0.1014700E+04  0.9118800E+02  0.7818608E-02  0.1180000E+00
       11   -1    0    0    0    0  0.00000000000E+00  0.00000000000E+00  0.39999999673E+01  0.40000000000E+01  0.51109989000E-03 0.  1.
     -623   -1    0    0    0    0  0.00000000000E+00  0.00000000000E+00  0.12525980253E-10  0.17130000000E+03  0.17130000000E+03 0.  1.
       11    1    1    2    0    0  0.10866289788E+00  0.27475243019E+00  0.11525531805E+01  0.11898216750E+01  0.51109989000E-03 0.  1.
     -623    1    1    2    0    0 -0.54395614505E-01 -0.50747726933E-02  0.11593405843E+00  0.17130004794E+03  0.17130000000E+03 0.  1.
      622    1    1    2    0    0 -0.54267283371E-01 -0.26967765750E+00  0.27315127285E+01  0.28101303818E+01  0.60000000000E+00 0.  1.
</event>
<event>
 5   0  0.1014700E+04  0.9118800E+02  0.7818608E-02  0.1180000E+00
       11   -1    0    0    0    0  0.00000000000E+00  0.00000000000E+00  0.39999999673E+01  0.40000000000E+01  0.51109989000E-03 0.  1.
     -623   -1    0    0    0    0  0.00000000000E+00  0.00000000000E+00  0.12525980253E-10  0.17130000000E+03  0.17130000000E+03 0. -1.
       11    1    1    2    0    0  0.11369519556E-01  0.30660717330E-02  0.89052886806E-01  0.89829531009E-01  0.51109989000E-03 0.  1.
     -623    1    1    2    0    0 -0.36572862035E-01  0.30980730359E-01  0.47330235183E-01  0.17130001324E+03  0.17130000000E+03 0. -1.
      622    1    1    2    0    0  0.25203342480E-01 -0.34046802092E-01  0.38636168454E+01  0.39101572246E+01  0.60000000000E+00 0.  1.
</event>
<event>
 5   0  0.1014700E+04  0.9118800E+02  0.7818608E-02  0.1180000E+00
       11   -1    0    0    0    0  0.00000000000E+00  0.00000000000E+00  0.39999999673E+01  0.40000000000E+01  0.51109989000E-03 0. -1.
     -623   -1    0    0    0    0  0.00000000000E+00  0.00000000000E+00  0.12525980253E-10  0.17130000000E+03  0.17130000000E+03 0. -1.
       11    1    1    2    0    0 -0.23397459583E-01  0.28909217550E-01  0.55455758058E-01  0.66774143936E-01  0.51109989000E-03 0. -1.
     -623    1    1    2    0    0 -0.43109316574E-01 -0.72303650577E-01  0.58193872253E-01  0.17130003057E+03  0.17130000000E+03 0. -1.
      622    1    1    2    0    0  0.66506776157E-01  0.43394433027E-01  0.38863503370E+01  0.39331952876E+01  0.60000000000E+00 0. -1.
</event>
<event>
 5   0  0.1014700E+04  0.9118800E+02  0.7818608E-02  0.1180000E+00
       11   -1    0    0    0    0  0.00000000000E+00  0.00000000000E+00  0.39999999673E+01  0.40000000000E+01  0.51109989000E-03 0. -1.
     -623   -1    0    0    0    0  0.00000000000E+00  0.00000000000E+00  0.12525980253E-10  0.17130000000E+03  0.17130000000E+03 0.  1.
       11    1    1    2    0    0 -0.16563360787E-01 -0.31178511487E-01  0.13954278539E-01  0.37966137698E-01  0.51109989000E-03 0. -1.
     -623    1    1    2    0    0  0.94207028383E-02 -0.50776731463E-02  0.69895646595E-01  0.17130001459E+03  0.17130000000E+03 0.  1.
      622    1    1    2    0    0  0.71426579486E-02  0.36256184633E-01  0.39161500422E+01  0.39620192682E+01  0.60000000000E+00 0. -1.
</event>
<event>
 5   0  0.1014700E+04  0.9118800E+02  0.7818608E-02  0.1180000E+00
       11   -1    0    0    0    0  0.00000000000E+00  0.00000000000E+00  0.39999999673E+01  0.40000000000E+01  0.51109989000E-03 0.  1.
     -623   -1    0    0    0    0  0.00000000000E+00  0.00000000000E+00  0.12525980253E-10  0.17130000000E+03  0.17130000000E+03 0.  1.
       11    1    1    2    0    0 -0.64943698798E-01 -0.11254332664E-01  0.14298560963E+00  0.15744678404E+00  0.51109989000E-03 0.  1.
     -623    1    1    2    0    0  0.40095459819E-01  0.22447395785E-01  0.61709401361E-01  0.17130001728E+03  0.17130000000E+03 0.  1.
      622    1    1    2    0    0  0.24848238979E-01 -0.11193063121E-01  0.37953049564E+01  0.38425359376E+01  0.60000000000E+00 0.  1.
</event>
<event>
 5   0  0.1014700E+04  0.9118800E+02  0.7818608E-02  0.1180000E+00
       11   -1    0    0    0    0  0.00000000000E+00  0.00000000000E+00  0.39999999673E+01  0.40000000000E+01  0.51109989000E-03 0.  1.
     -623   -1    0    0    0    0  0.00000000000E+00  0.00000000000E+00  0.12525980253E-10  0.17130000000E+03  0.17130000000E+03 0. -1.
       11    1    1    2    0    0 -0.92895809077E-02 -0.10478434279E-01 -0.16754071306E-01  0.21841566491E-01  0.51109989000E-03 0.  1.
     -623    1    1    2    0    0  0.79181635149E-01 -0.32618295702E-01  0.85003260401E-01  0.17130004250E+03  0.17130000000E+03 0. -1.
      622    1    1    2    0    0 -0.69892054242E-01  0.43096729980E-01  0.39317507783E+01  0.39781159372E+01  0.60000000000E+00 0.  1.
</event>
<event>
 5   0  0.1014700E+04  0.9118800E+02  0.7818608E-02  0.1180000E+00
       11   -1    0    0    0    0  0.00000000000E+00  0.00000000000E+00  0.39999999673E+01  0.40000000000E+01  0.51109989000E-03 0. -1.
     -623   -1    0    0    0    0  0.00000000000E+00  0.00000000000E+00  0.12525980253E-10  0.17130000000E+03  0.17130000000E+03 0.  1.
       11    1    1    2    0    0 -0.49611591811E-01 -0.16771679532E-01  0.11150758391E+00  0.12319416288E+00  0.51109989000E-03 0. -1.
     -623    1    1    2    0    0 -0.32123614827E-01  0.40388653551E-01  0.59361271440E-01  0.17130001806E+03  0.17130000000E+03 0.  1.
      622    1    1    2    0    0  0.81735206637E-01 -0.23616974019E-01  0.38291311120E+01  0.38767877784E+01  0.60000000000E+00 0. -1.
</event>
<event>
 5   0  0.1014700E+04  0.9118800E+02  0.7818608E-02  0.1180000E+00
       11   -1    0    0    0    0  0.00000000000E+00  0.00000000000E+00  0.39999999673E+01  0.40000000000E+01  0.51109989000E-03 0. -1.
     -623   -1    0    0    0    0  0.00000000000E+00  0.00000000000E+00  0.12525980253E-10  0.17130000000E+03  0.17130000000E+03 0. -1.
       11    1    1    2    0    0  0.36286627195E-01  0.17465747381E-01  0.16189020053E-01  0.43406419320E-01  0.51109989000E-03 0. -1.
     -623    1    1    2    0    0 -0.53438133158E-01 -0.98834346272E-02  0.73045083033E-01  0.17130002419E+03  0.17130000000E+03 0. -1.
      622    1    1    2    0    0  0.17151505964E-01 -0.75823127542E-02  0.39107658643E+01  0.39565693866E+01  0.60000000000E+00 0. -1.
</event>
<event>
 5   0  0.1014700E+04  0.9118800E+02  0.7818608E-02  0.1180000E+00
       11   -1    0    0    0    0  0.00000000000E+00  0.00000000000E+00  0.39999999673E+01  0.40000000000E+01  0.51109989000E-03 0. -1.
     -623   -1    0    0    0    0  0.00000000000E+00  0.00000000000E+00  0.12525980253E-10  0.17130000000E+03  0.17130000000E+03 0. -1.
       11    1    1    2    0    0  0.27377241571E-02 -0.18836804986E-01  0.21021341849E-01  0.28363328293E-01  0.51109989000E-03 0. -1.
     -623    1    1    2    0    0  0.29454115715E-01  0.38145281668E-01  0.53119554098E-01  0.17130001502E+03  0.17130000000E+03 0. -1.
      622    1    1    2    0    0 -0.32191839872E-01 -0.19308476681E-01  0.39258590714E+01  0.39716216563E+01  0.60000000000E+00 0. -1.
</event>
<event>
 5   0  0.1014700E+04  0.9118800E+02  0.7818608E-02  0.1180000E+00
       11   -1    0    0    0    0  0.00000000000E+00  0.00000000000E+00  0.39999999673E+01  0.40000000000E+01  0.51109989000E-03 0.  1.
     -623   -1    0    0    0    0  0.00000000000E+00  0.00000000000E+00  0.12525980253E-10  0.17130000000E+03  0.17130000000E+03 0. -1.
       11    1    1    2    0    0 -0.60680189492E-01  0.56748589591E-02 -0.24677430706E-01  0.65753526371E-01  0.51109989000E-03 0.  1.
     -623    1    1    2    0    0 -0.70644169313E-01 -0.10483226685E+00  0.14004104332E+00  0.17130010389E+03  0.17130000000E+03 0. -1.
      622    1    1    2    0    0  0.13132435880E+00  0.99157407892E-01  0.38846363547E+01  0.39341425860E+01  0.60000000000E+00 0.  1.
</event>
<event>
 5   0  0.1014700E+04  0.9118800E+02  0.7818608E-02  0.1180000E+00
       11   -1    0    0    0    0  0.00000000000E+00  0.00000000000E+00  0.39999999673E+01  0.40000000000E+01  0.51109989000E-03 0. -1.
     -623   -1    0    0    0    0  0.00000000000E+00  0.00000000000E+00  0.12525980253E-10  0.17130000000E+03  0.17130000000E+03 0. -1.
       11    1    1    2    0    0 -0.15684822505E+00 -0.40076331367E-01  0.72046247223E+00  0.73842664711E+00  0.51109989000E-03 0. -1.
     -623    1    1    2    0    0 -0.24987540124E-01  0.77968109882E-01  0.79050955709E-01  0.17130003781E+03  0.17130000000E+03 0. -1.
      622    1    1    2    0    0  0.18183576517E+00 -0.37891778514E-01  0.32004865394E+01  0.32615355465E+01  0.60000000000E+00 0. -1.
</event>
<event>
 5   0  0.1014700E+04  0.9118800E+02  0.7818608E-02  0.1180000E+00
       11   -1    0    0    0    0  0.00000000000E+00  0.00000000000E+00  0.39999999673E+01  0.40000000000E+01  0.51109989000E-03 0.  1.
     -623   -1    0    0    0    0  0.00000000000E+00  0.00000000000E+00  0.12525980253E-10  0.17130000000E+03  0.17130000000E+03 0.  1.
       11    1    1    2    0    0  0.32456409629E-01 -0.38464586065E-01  0.25310370545E+00  0.25805946959E+00  0.51109989000E-03 0.  1.
     -623    1    1    2    0    0 -0.33400423746E-01 -0.35971696538E-01  0.54138400658E-01  0.17130001559E+03  0.17130000000E+03 0.  1.
      622    1    1    2    0    0  0.94401411735E-03  0.74436282603E-01  0.36927578613E+01  0.37419249422E+01  0.60000000000E+00 0.  0.
</event>
<event>
 5   0  0.1014700E+04  0.9118800E+02  0.7818608E-02  0.1180000E+00
       11   -1    0    0    0    0  0.00000000000E+00  0.00000000000E+00  0.39999999673E+01  0.40000000000E+01  0.51109989000E-03 0. -1.
     -623   -1    0    0    0    0  0.00000000000E+00  0.00000000000E+00  0.12525980253E-10  0.17130000000E+03  0.17130000000E+03 0. -1.
       11    1    1    2    0    0 -0.49883455069E-01 -0.81731193103E-02  0.59084565913E+00  0.59300422688E+00  0.51109989000E-03 0. -1.
     -623    1    1    2    0    0  0.71608902158E-01  0.66353572903E-01  0.56019764586E-01  0.17130003698E+03  0.17130000000E+03 0. -1.
      622    1    1    2    0    0 -0.21725447089E-01 -0.58180453592E-01  0.33531345436E+01  0.34069587946E+01  0.60000000000E+00 0. -1.
</event>
<event>
 5   0  0.1014700E+04  0.9118800E+02  0.7818608E-02  0.1180000E+00
       11   -1    0    0    0    0  0.00000000000E+00  0.00000000000E+00  0.39999999673E+01  0.40000000000E+01  0.51109989000E-03 0. -1.
     -623   -1    0    0    0    0  0.00000000000E+00  0.00000000000E+00  0.12525980253E-10  0.17130000000E+03  0.17130000000E+03 0. -1.
       11    1    1    2    0    0 -0.16374751966E-01 -0.24081316648E-01  0.53903535382E-01  0.61269035110E-01  0.51109989000E-03 0. -1.
     -623    1    1    2    0    0  0.45867881223E-01 -0.20221159427E-01  0.53713492802E-01  0.17130001576E+03  0.17130000000E+03 0. -1.
      622    1    1    2    0    0 -0.29493129257E-01  0.44302476075E-01  0.38923829392E+01  0.39387152092E+01  0.60000000000E+00 0. -1.
</event>
<event>
 5   0  0.1014700E+04  0.9118800E+02  0.7818608E-02  0.1180000E+00
       11   -1    0    0    0    0  0.00000000000E+00  0.00000000000E+00  0.39999999673E+01  0.40000000000E+01  0.51109989000E-03 0.  1.
     -623   -1    0    0    0    0  0.00000000000E+00  0.00000000000E+00  0.12525980253E-10  0.17130000000E+03  0.17130000000E+03 0.  1.
       11    1    1    2    0    0 -0.39805666922E-01  0.80349929228E-02  0.77515058634E+00  0.77621372376E+00  0.51109989000E-03 0.  1.
     -623    1    1    2    0    0  0.16606032670E-01  0.38181944553E-01  0.57827409497E-01  0.17130001482E+03  0.17130000000E+03 0.  1.
      622    1    1    2    0    0  0.23199634251E-01 -0.46216937476E-01  0.31670219715E+01  0.32237714554E+01  0.60000000000E+00 0.  1.
</event>
<event>
 5   0  0.1014700E+04  0.9118800E+02  0.7818608E-02  0.1180000E+00
       11   -1    0    0    0    0  0.00000000000E+00  0.00000000000E+00  0.39999999673E+01  0.40000000000E+01  0.51109989000E-03 0.  1.
     -623   -1    0    0    0    0  0.00000000000E+00  0.00000000000E+00  0.12525980253E-10  0.17130000000E+03  0.17130000000E+03 0.  1.
       11    1    1    2    0    0 -0.92630223964E-01  0.96557199150E-01  0.14310086478E+00  0.19591265866E+00  0.51109989000E-03 0.  1.
     -623    1    1    2    0    0  0.11790351905E+00 -0.64297881034E-01  0.10073413765E+00  0.17130008226E+03  0.17130000000E+03 0.  1.
      622    1    1    2    0    0 -0.25273295082E-01 -0.32259318116E-01  0.37561649649E+01  0.38040050798E+01  0.60000000000E+00 0.  1.
</event>
<event>
 5   0  0.1014700E+04  0.9118800E+02  0.7818608E-02  0.1180000E+00
       11   -1    0    0    0    0  0.00000000000E+00  0.00000000000E+00  0.39999999673E+01  0.40000000000E+01  0.51109989000E-03 0.  1.
     -623   -1    0    0    0    0  0.00000000000E+00  0.00000000000E+00  0.12525980253E-10  0.17130000000E+03  0.17130000000E+03 0.  1.
       11    1    1    2    0    0  0.29341109528E-01 -0.15951174318E-01  0.29857073756E+00  0.30043316598E+00  0.51109989000E-03 0.  1.
     -623    1    1    2    0    0  0.96543435337E-02 -0.72446661377E-01  0.52143566717E-01  0.17130002353E+03  0.17130000000E+03 0.  1.
      622    1    1    2    0    0 -0.38995453061E-01  0.88397835696E-01  0.36492856631E+01  0.36995433061E+01  0.60000000000E+00 0.  1.
</event>
<event>
 5   0  0.1014700E+04  0.9118800E+02  0.7818608E-02  0.1180000E+00
       11   -1    0    0    0    0  0.00000000000E+00  0.00000000000E+00  0.39999999673E+01  0.40000000000E+01  0.51109989000E-03 0.  1.
     -623   -1    0    0    0    0  0.00000000000E+00  0.00000000000E+00  0.12525980253E-10  0.17130000000E+03  0.17130000000E+03 0.  1.
       11    1    1    2    0    0 -0.20517870676E-01 -0.15498698678E-02  0.14168746293E-02  0.20631380722E-01  0.51109989000E-03 0.  1.
     -623    1    1    2    0    0  0.36089909821E-01 -0.11763476081E-02  0.64755823274E-01  0.17130001605E+03  0.17130000000E+03 0.  1.
      622    1    1    2    0    0 -0.15572039145E-01  0.27262174759E-02  0.39338272695E+01  0.39793525738E+01  0.60000000000E+00 0.  1.
</event>
<event>
 5   0  0.1014700E+04  0.9118800E+02  0.7818608E-02  0.1180000E+00
       11   -1    0    0    0    0  0.00000000000E+00  0.00000000000E+00  0.39999999673E+01  0.40000000000E+01  0.51109989000E-03 0. -1.
     -623   -1    0    0    0    0  0.00000000000E+00  0.00000000000E+00  0.12525980253E-10  0.17130000000E+03  0.17130000000E+03 0. -1.
       11    1    1    2    0    0 -0.26399698118E-01  0.20001939284E-01  0.18419458626E-01  0.37901969804E-01  0.51109989000E-03 0. -1.
     -623    1    1    2    0    0  0.31406367415E-01  0.25390703852E-01  0.65460182972E-01  0.17130001727E+03  0.17130000000E+03 0. -1.
      622    1    1    2    0    0 -0.50066692968E-02 -0.45392643136E-01  0.39161203258E+01  0.39620807620E+01  0.60000000000E+00 0. -1.
</event>
<event>
 5   0  0.1014700E+04  0.9118800E+02  0.7818608E-02  0.1180000E+00
       11   -1    0    0    0    0  0.00000000000E+00  0.00000000000E+00  0.39999999673E+01  0.40000000000E+01  0.51109989000E-03 0.  1.
     -623   -1    0    0    0    0  0.00000000000E+00  0.00000000000E+00  0.12525980253E-10  0.17130000000E+03  0.17130000000E+03 0.  1.
       11    1    1    2    0    0  0.10180752011E+00 -0.44196347930E-01  0.17367320088E+00  0.20610853997E+00  0.51109989000E-03 0.  1.
     -623    1    1    2    0    0 -0.37955294867E-01  0.22709389411E-02  0.80982951192E-01  0.17130002336E+03  0.17130000000E+03 0.  1.
      622    1    1    2    0    0 -0.63852225245E-01  0.41925408989E-01  0.37453438153E+01  0.37938680975E+01  0.60000000000E+00 0.  1.
</event>
<event>
 5   0  0.1014700E+04  0.9118800E+02  0.7818608E-02  0.1180000E+00
       11   -1    0    0    0    0  0.00000000000E+00  0.00000000000E+00  0.39999999673E+01  0.40000000000E+01  0.51109989000E-03 0. -1.
     -623   -1    0    0    0    0  0.00000000000E+00  0.00000000000E+00  0.12525980253E-10  0.17130000000E+03  0.17130000000E+03 0.  1.
       11    1    1    2    0    0  0.27054198411E-01 -0.37661137369E-02  0.24110628259E+00  0.24264915823E+00  0.51109989000E-03 0. -1.
     -623    1    1    2    0    0 -0.47265451106E-01  0.19718770999E-01  0.49862773521E-01  0.17130001491E+03  0.17130000000E+03 0.  1.
      622    1    1    2    0    0  0.20211252695E-01 -0.15952657262E-01  0.37090309113E+01  0.37573359289E+01  0.60000000000E+00 0. -1.
</event>
<event>
 5   0  0.1014700E+04  0.9118800E+02  0.7818608E-02  0.1180000E+00
       11   -1    0    0    0    0  0.00000000000E+00  0.00000000000E+00  0.39999999673E+01  0.40000000000E+01  0.51109989000E-03 0.  1.
     -623   -1    0    0    0    0  0.00000000000E+00  0.00000000000E+00  0.12525980253E-10  0.17130000000E+03  0.17130000000E+03 0. -1.
       11    1    1    2    0    0  0.24566774298E-02 -0.35802886775E-02 -0.10274052639E-01  0.11165621870E-01  0.51109989000E-03 0.  1.
     -623    1    1    2    0    0 -0.49418071449E-01  0.27347922853E-01  0.67197810530E-01  0.17130002249E+03  0.17130000000E+03 0. -1.
      622    1    1    2    0    0  0.46961394019E-01 -0.23767634175E-01  0.39430762095E+01  0.39888118866E+01  0.60000000000E+00 0.  1.
</event>
<event>
 5   0  0.1014700E+04  0.9118800E+02  0.7818608E-02  0.1180000E+00
       11   -1    0    0    0    0  0.00000000000E+00  0.00000000000E+00  0.39999999673E+01  0.40000000000E+01  0.51109989000E-03 0.  1.
     -623   -1    0    0    0    0  0.00000000000E+00  0.00000000000E+00  0.12525980253E-10  0.17130000000E+03  0.17130000000E+03 0. -1.
       11    1    1    2    0    0 -0.27184701318E-01 -0.41067005748E-02  0.52662184283E+00  0.52733926418E+00  0.51109989000E-03 0.  1.
     -623    1    1    2    0    0 -0.23394857117E-01  0.87324006270E-01  0.54363122915E-01  0.17130003248E+03  0.17130000000E+03 0. -1.
      622    1    1    2    0    0  0.50579558435E-01 -0.83217305696E-01  0.34190150016E+01  0.34726282544E+01  0.60000000000E+00 0.  1.
</event>
<event>
 5   0  0.1014700E+04  0.9118800E+02  0.7818608E-02  0.1180000E+00
       11   -1    0    0    0    0  0.00000000000E+00  0.00000000000E+00  0.39999999673E+01  0.40000000000E+01  0.51109989000E-03 0.  1.
     -623   -1    0    0    0    0  0.00000000000E+00  0.00000000000E+00  0.12525980253E-10  0.17130000000E+03  0.17130000000E+03 0. -1.
       11    1    1    2    0    0  0.16240408894E+00  0.11032075043E+00  0.27188005118E+00  0.33535768894E+00  0.51109989000E-03 0.  1.
     -623    1    1    2    0    0 -0.11533261195E+00 -0.12298657497E+00  0.11338009467E+00  0.17130012050E+03  0.17130000000E+03 0. -1.
      622    1    1    2    0    0 -0.47071476996E-01  0.12665824537E-01  0.36147398215E+01  0.36645218139E+01  0.60000000000E+00 0.  1.
</event>
<event>
 5   0  0.1014700E+04  0.9118800E+02  0.7818608E-02  0.1180000E+00
       11   -1    0    0    0    0  0.00000000000E+00  0.00000000000E+00  0.39999999673E+01  0.40000000000E+01  0.51109989000E-03 0.  1.
     -623   -1    0    0    0    0  0.00000000000E+00  0.00000000000E+00  0.12525980253E-10  0.17130000000E+03  0.17130000000E+03 0. -1.
       11    1    1    2    0    0  0.48598074097E-02  0.89203916722E-02 -0.47111262043E-02  0.11209239441E-01  0.51109989000E-03 0.  1.
     -623    1    1    2    0    0 -0.21863235712E-01  0.79600746030E-02  0.61390500310E-01  0.17130001258E+03  0.17130000000E+03 0. -1.
      622    1    1    2    0    0  0.17003428303E-01 -0.16880466275E-01  0.39433205933E+01  0.39887781798E+01  0.60000000000E+00 0.  1.
</event>
<event>
 5   0  0.1014700E+04  0.9118800E+02  0.7818608E-02  0.1180000E+00
       11   -1    0    0    0    0  0.00000000000E+00  0.00000000000E+00  0.39999999673E+01  0.40000000000E+01  0.51109989000E-03 0. -1.
     -623   -1    0    0    0    0  0.00000000000E+00  0.00000000000E+00  0.12525980253E-10  0.17130000000E+03  0.17130000000E+03 0.  1.
       11    1    1    2    0    0 -0.12400944027E-01  0.12522537395E-01  0.32824177401E-01  0.37259699418E-01  0.51109989000E-03 0. -1.
     -623    1    1    2    0    0 -0.31901429897E-01  0.30257844830E-01  0.50619415896E-01  0.17130001312E+03  0.17130000000E+03 0.  1.
      622    1    1    2    0    0  0.44302373924E-01 -0.42780382225E-01  0.39165563741E+01  0.39627271787E+01  0.60000000000E+00 0.  0.
</event>
<event>
 5   0  0.1014700E+04  0.9118800E+02  0.7818608E-02  0.1180000E+00
       11   -1    0    0    0    0  0.00000000000E+00  0.00000000000E+00  0.39999999673E+01  0.40000000000E+01  0.51109989000E-03 0. -1.
     -623   -1    0    0    0    0  0.00000000000E+00  0.00000000000E+00  0.12525980253E-10  0.17130000000E+03  0.17130000000E+03 0.  1.
       11    1    1    2    0    0  0.66369374314E-02  0.22993953350E-01  0.14926074901E+00  0.15116812907E+00  0.51109989000E-03 0. -1.
     -623    1    1    2    0    0  0.25759788703E-01 -0.74516149854E-01  0.49475215374E-01  0.17130002529E+03  0.17130000000E+03 0.  1.
      622    1    1    2    0    0 -0.32396726134E-01  0.51522196504E-01  0.38012640030E+01  0.38488065819E+01  0.60000000000E+00 0. -1.
</event>
<event>
 5   0  0.1014700E+04  0.9118800E+02  0.7818608E-02  0.1180000E+00
       11   -1    0    0    0    0  0.00000000000E+00  0.00000000000E+00  0.39999999673E+01  0.40000000000E+01  0.51109989000E-03 0.  1.
     -623   -1    0    0    0    0  0.00000000000E+00  0.00000000000E+00  0.12525980253E-10  0.17130000000E+03  0.17130000000E+03 0.  1.
       11    1    1    2    0    0 -0.22662187191E-01  0.12437716770E-02  0.58970562073E-01  0.63189477847E-01  0.51109989000E-03 0.  1.
     -623    1    1    2    0    0  0.18565469309E-01  0.99881382077E-02  0.50236949544E-01  0.17130000866E+03  0.17130000000E+03 0.  1.
      622    1    1    2    0    0  0.40967178821E-02 -0.11231909885E-01  0.38907924557E+01  0.39368018584E+01  0.60000000000E+00 0.  1.
</event>
<event>
 5   0  0.1014700E+04  0.9118800E+02  0.7818608E-02  0.1180000E+00
       11   -1    0    0    0    0  0.00000000000E+00  0.00000000000E+00  0.39999999673E+01  0.40000000000E+01  0.51109989000E-03 0. -1.
     -623   -1    0    0    0    0  0.00000000000E+00  0.00000000000E+00  0.12525980253E-10  0.17130000000E+03  0.17130000000E+03 0. -1.
       11    1    1    2    0    0  0.20163227603E-01 -0.70356111127E-01  0.32751838664E+00  0.33559662234E+00  0.51109989000E-03 0. -1.
     -623    1    1    2    0    0 -0.39191397825E-01  0.10724583405E+00  0.57819939521E-01  0.17130004781E+03  0.17130000000E+03 0. -1.
      622    1    1    2    0    0  0.19028170222E-01 -0.36889722924E-01  0.36146616412E+01  0.36643555645E+01  0.60000000000E+00 0. -1.
</event>
<event>
 5   0  0.1014700E+04  0.9118800E+02  0.7818608E-02  0.1180000E+00
       11   -1    0    0    0    0  0.00000000000E+00  0.00000000000E+00  0.39999999673E+01  0.40000000000E+01  0.51109989000E-03 0. -1.
     -623   -1    0    0    0    0  0.00000000000E+00  0.00000000000E+00  0.12525980253E-10  0.17130000000E+03  0.17130000000E+03 0.  1.
       11    1    1    2    0    0 -0.14505404533E-01  0.78768463842E-02  0.23833172138E-01  0.28995392479E-01  0.51109989000E-03 0. -1.
     -623    1    1    2    0    0  0.69751887387E-02 -0.34734663043E-01  0.50862924354E-01  0.17130001121E+03  0.17130000000E+03 0.  1.
      622    1    1    2    0    0  0.75302157940E-02  0.26857816659E-01  0.39253038709E+01  0.39709933927E+01  0.60000000000E+00 0. -1.
</event>
<event>
 5   0  0.1014700E+04  0.9118800E+02  0.7818608E-02  0.1180000E+00
       11   -1    0    0    0    0  0.00000000000E+00  0.00000000000E+00  0.39999999673E+01  0.40000000000E+01  0.51109989000E-03 0.  1.
     -623   -1    0    0    0    0  0.00000000000E+00  0.00000000000E+00  0.12525980253E-10  0.17130000000E+03  0.17130000000E+03 0. -1.
       11    1    1    2    0    0  0.25043147353E-01  0.19989854951E-01  0.51144214209E-01  0.60355160512E-01  0.51109989000E-03 0.  1.
     -623    1    1    2    0    0 -0.52989166642E-01 -0.19135291035E-01  0.55287151597E-01  0.17130001819E+03  0.17130000000E+03 0. -1.
      622    1    1    2    0    0  0.27946019289E-01 -0.85456391580E-03  0.38935686016E+01  0.39396266530E+01  0.60000000000E+00 0.  1.
</event>
<event>
 5   0  0.1014700E+04  0.9118800E+02  0.7818608E-02  0.1180000E+00
       11   -1    0    0    0    0  0.00000000000E+00  0.00000000000E+00  0.39999999673E+01  0.40000000000E+01  0.51109989000E-03 0. -1.
     -623   -1    0    0    0    0  0.00000000000E+00  0.00000000000E+00  0.12525980253E-10  0.17130000000E+03  0.17130000000E+03 0. -1.
       11    1    1    2    0    0  0.36520023739E-01  0.20744626500E-01  0.11154981312E+00  0.11919594663E+00  0.51109989000E-03 0. -1.
     -623    1    1    2    0    0  0.22211004990E-02 -0.40718184143E-01  0.54570246706E-01  0.17130001355E+03  0.17130000000E+03 0. -1.
      622    1    1    2    0    0 -0.38741124238E-01  0.19973557643E-01  0.38338799075E+01  0.38807905075E+01  0.60000000000E+00 0. -1.
</event>
<event>
 5   0  0.1014700E+04  0.9118800E+02  0.7818608E-02  0.1180000E+00
       11   -1    0    0    0    0  0.00000000000E+00  0.00000000000E+00  0.39999999673E+01  0.40000000000E+01  0.51109989000E-03 0.  1.
     -623   -1    0    0    0    0  0.00000000000E+00  0.00000000000E+00  0.12525980253E-10  0.17130000000E+03  0.17130000000E+03 0.  1.
       11    1    1    2    0    0 -0.70288362379E-01 -0.47560847915E-01 -0.19988077951E-01  0.87191012287E-01  0.51109989000E-03 0.  1.
     -623    1    1    2    0    0  0.15811710183E+00 -0.90461584797E-01  0.15708907367E+00  0.17130016889E+03  0.17130000000E+03 0.  1.
      622    1    1    2    0    0 -0.87828739447E-01  0.13802243271E+00  0.38628989716E+01  0.39126400990E+01  0.60000000000E+00 0.  1.
</event>
<event>
 5   0  0.1014700E+04  0.9118800E+02  0.7818608E-02  0.1180000E+00
       11   -1    0    0    0    0  0.00000000000E+00  0.00000000000E+00  0.39999999673E+01  0.40000000000E+01  0.51109989000E-03 0. -1.
     -623   -1    0    0    0    0  0.00000000000E+00  0.00000000000E+00  0.12525980253E-10  0.17130000000E+03  0.17130000000E+03 0. -1.
       11    1    1    2    0    0  0.18527505056E-01  0.22974049135E-01 -0.15051895652E-01  0.33134516189E-01  0.51109989000E-03 0. -1.
     -623    1    1    2    0    0 -0.27062835542E-01  0.10630754301E-01  0.94006669788E-01  0.17130002826E+03  0.17130000000E+03 0. -1.
      622    1    1    2    0    0  0.85353304856E-02 -0.33604803435E-01  0.39210451932E+01  0.39668372215E+01  0.60000000000E+00 0. -1.
</event>
<event>
 5   0  0.1014700E+04  0.9118800E+02  0.7818608E-02  0.1180000E+00
       11   -1    0    0    0    0  0.00000000000E+00  0.00000000000E+00  0.39999999673E+01  0.40000000000E+01  0.51109989000E-03 0.  1.
     -623   -1    0    0    0    0  0.00000000000E+00  0.00000000000E+00  0.12525980253E-10  0.17130000000E+03  0.17130000000E+03 0. -1.
       11    1    1    2    0    0  0.43464604362E-01  0.81016941987E-01  0.20160489296E+00  0.22158003252E+00  0.51109989000E-03 0.  1.
     -623    1    1    2    0    0 -0.92077250379E-02 -0.45099418568E-01  0.68268492769E-01  0.17130001979E+03  0.17130000000E+03 0. -1.
      622    1    1    2    0    0 -0.34256879324E-01 -0.35917523419E-01  0.37301265816E+01  0.37784001796E+01  0.60000000000E+00 0.  1.
</event>
<event>
 5   0  0.1014700E+04  0.9118800E+02  0.7818608E-02  0.1180000E+00
       11   -1    0    0    0    0  0.00000000000E+00  0.00000000000E+00  0.39999999673E+01  0.40000000000E+01  0.51109989000E-03 0. -1.
     -623   -1    0    0    0    0  0.00000000000E+00  0.00000000000E+00  0.12525980253E-10  0.17130000000E+03  0.17130000000E+03 0.  1.
       11    1    1    2    0    0  0.63260718579E-01  0.10141435658E+00 -0.15632575619E-01  0.12054637646E+00  0.51109989000E-03 0. -1.
     -623    1    1    2    0    0 -0.23286189338E+00 -0.12254705750E+00  0.18697880419E+00  0.17130030415E+03  0.17130000000E+03 0.  1.
      622    1    1    2    0    0  0.16960117480E+00  0.21132700927E-01  0.38286537388E+01  0.38791494688E+01  0.60000000000E+00 0. -1.
</event>
<event>
 5   0  0.1014700E+04  0.9118800E+02  0.7818608E-02  0.1180000E+00
       11   -1    0    0    0    0  0.00000000000E+00  0.00000000000E+00  0.39999999673E+01  0.40000000000E+01  0.51109989000E-03 0. -1.
     -623   -1    0    0    0    0  0.00000000000E+00  0.00000000000E+00  0.12525980253E-10  0.17130000000E+03  0.17130000000E+03 0.  1.
       11    1    1    2    0    0  0.61645335565E-02 -0.35670265039E-02 -0.33236245855E-02  0.78760938118E-02  0.51109989000E-03 0. -1.
     -623    1    1    2    0    0 -0.11933066957E-01  0.24643348291E-02  0.56560262747E-01  0.17130000977E+03  0.17130000000E+03 0.  1.
      622    1    1    2    0    0  0.57685334005E-02  0.11026916749E-02  0.39467633292E+01  0.39921141352E+01  0.60000000000E+00 0. -1.
</event>
<event>
 5   0  0.1014700E+04  0.9118800E+02  0.7818608E-02  0.1180000E+00
       11   -1    0    0    0    0  0.00000000000E+00  0.00000000000E+00  0.39999999673E+01  0.40000000000E+01  0.51109989000E-03 0.  1.
     -623   -1    0    0    0    0  0.00000000000E+00  0.00000000000E+00  0.12525980253E-10  0.17130000000E+03  0.17130000000E+03 0. -1.
       11    1    1    2    0    0 -0.59581557968E-02 -0.17416027957E-02 -0.92935438358E-02  0.11187670934E-01  0.51109989000E-03 0.  1.
     -623    1    1    2    0    0 -0.31643945789E-01 -0.92001412022E-02  0.66076144207E-01  0.17130001591E+03  0.17130000000E+03 0. -1.
      622    1    1    2    0    0  0.37602101586E-01  0.10941743998E-01  0.39432173670E+01  0.39887964154E+01  0.60000000000E+00 0.  1.
</event>
<event>
 5   0  0.1014700E+04  0.9118800E+02  0.7818608E-02  0.1180000E+00
       11   -1    0    0    0    0  0.00000000000E+00  0.00000000000E+00  0.39999999673E+01  0.40000000000E+01  0.51109989000E-03 0.  1.
     -623   -1    0    0    0    0  0.00000000000E+00  0.00000000000E+00  0.12525980253E-10  0.17130000000E+03  0.17130000000E+03 0. -1.
       11    1    1    2    0    0  0.18086569988E-01 -0.48486363666E-02  0.73011488462E-02  0.20104757798E-01  0.51109989000E-03 0.  1.
     -623    1    1    2    0    0  0.18377997836E-01  0.19650313485E-01  0.58499909487E-01  0.17130001210E+03  0.17130000000E+03 0. -1.
      622    1    1    2    0    0 -0.36464567824E-01 -0.14801677118E-01  0.39341989090E+01  0.39798831403E+01  0.60000000000E+00 0.  1.
</event>
<event>
 5   0  0.1014700E+04  0.9118800E+02  0.7818608E-02  0.1180000E+00
       11   -1    0    0    0    0  0.00000000000E+00  0.00000000000E+00  0.39999999673E+01  0.40000000000E+01  0.51109989000E-03 0. -1.
     -623   -1    0    0    0    0  0.00000000000E+00  0.00000000000E+00  0.12525980253E-10  0.17130000000E+03  0.17130000000E+03 0.  1.
       11    1    1    2    0    0  0.86858201042E-01  0.33787976006E+00  0.92046262389E+00  0.98435704017E+00  0.51109989000E-03 0. -1.
     -623    1    1    2    0    0 -0.20610314263E+00  0.16288050514E+00  0.16965748925E+00  0.17130028544E+03  0.17130000000E+03 0.  1.
      622    1    1    2    0    0  0.11924494159E+00 -0.50076026520E+00  0.29098798542E+01  0.30153575187E+01  0.60000000000E+00 0. -1.
</event>
<event>
 5   0  0.1014700E+04  0.9118800E+02  0.7818608E-02  0.1180000E+00
       11   -1    0    0    0    0  0.00000000000E+00  0.00000000000E+00  0.39999999673E+01  0.40000000000E+01  0.51109989000E-03 0. -1.
     -623   -1    0    0    0    0  0.00000000000E+00  0.00000000000E+00  0.12525980253E-10  0.17130000000E+03  0.17130000000E+03 0. -1.
       11    1    1    2    0    0 -0.45289292844E-01 -0.10552281546E-01  0.20877885563E+00  0.21389563453E+00  0.51109989000E-03 0. -1.
     -623    1    1    2    0    0  0.78729037924E-01 -0.17960983412E-01  0.53247295187E-01  0.17130002731E+03  0.17130000000E+03 0. -1.
      622    1    1    2    0    0 -0.33439745080E-01  0.28513264958E-01  0.37379738165E+01  0.37860770563E+01  0.60000000000E+00 0. -1.
</event>
<event>
 5   0  0.1014700E+04  0.9118800E+02  0.7818608E-02  0.1180000E+00
       11   -1    0    0    0    0  0.00000000000E+00  0.00000000000E+00  0.39999999673E+01  0.40000000000E+01  0.51109989000E-03 0.  1.
     -623   -1    0    0    0    0  0.00000000000E+00  0.00000000000E+00  0.12525980253E-10  0.17130000000E+03  0.17130000000E+03 0. -1.
       11    1    1    2    0    0 -0.83571062385E-01 -0.69104993455E-01  0.48087778108E-01  0.11862680226E+00  0.51109989000E-03 0.  1.
     -623    1    1    2    0    0  0.51739748907E-01  0.34023683954E+00  0.12732313700E+00  0.17130039302E+03  0.17130000000E+03 0. -1.
      622    1    1    2    0    0  0.31831313478E-01 -0.27113184608E+00  0.38245890522E+01  0.38809801763E+01  0.60000000000E+00 0.  1.
</event>
<event>
 5   0  0.1014700E+04  0.9118800E+02  0.7818608E-02  0.1180000E+00
       11   -1    0    0    0    0  0.00000000000E+00  0.00000000000E+00  0.39999999673E+01  0.40000000000E+01  0.51109989000E-03 0.  1.
     -623   -1    0    0    0    0  0.00000000000E+00  0.00000000000E+00  0.12525980253E-10  0.17130000000E+03  0.17130000000E+03 0.  1.
       11    1    1    2    0    0 -0.11443002562E+00 -0.20657133239E+00  0.78711403181E+00  0.82177533817E+00  0.51109989000E-03 0.  1.
     -623    1    1    2    0    0 -0.46824227379E+00  0.11563560861E+00  0.14880214725E+00  0.17130074362E+03  0.17130000000E+03 0.  1.
      622    1    1    2    0    0  0.58267229941E+00  0.90935723787E-01  0.30640837883E+01  0.31774810426E+01  0.60000000000E+00 0.  1.
</event>
<event>
 5   0  0.1014700E+04  0.9118800E+02  0.7818608E-02  0.1180000E+00
       11   -1    0    0    0    0  0.00000000000E+00  0.00000000000E+00  0.39999999673E+01  0.40000000000E+01  0.51109989000E-03 0. -1.
     -623   -1    0    0    0    0  0.00000000000E+00  0.00000000000E+00  0.12525980253E-10  0.17130000000E+03  0.17130000000E+03 0. -1.
       11    1    1    2    0    0  0.13686867263E-01  0.20959627939E-01  0.38761232828E+00  0.38842015215E+00  0.51109989000E-03 0. -1.
     -623    1    1    2    0    0 -0.10363694025E-01  0.34268274730E-01  0.51437621618E-01  0.17130001146E+03  0.17130000000E+03 0. -1.
      622    1    1    2    0    0 -0.33231732375E-02 -0.55227902669E-01  0.35609500175E+01  0.36115683839E+01  0.60000000000E+00 0. -1.
</event>
<event>
 5   0  0.1014700E+04  0.9118800E+02  0.7818608E-02  0.1180000E+00
       11   -1    0    0    0    0  0.00000000000E+00  0.00000000000E+00  0.39999999673E+01  0.40000000000E+01  0.51109989000E-03 0. -1.
     -623   -1    0    0    0    0  0.00000000000E+00  0.00000000000E+00  0.12525980253E-10  0.17130000000E+03  0.17130000000E+03 0. -1.
       11    1    1    2    0    0 -0.81960483422E-02 -0.14225782725E-01  0.27615330536E+00  0.27664138769E+00  0.51109989000E-03 0. -1.
     -623    1    1    2    0    0 -0.12883601468E-01  0.44081116054E-01  0.49344669224E-01  0.17130001326E+03  0.17130000000E+03 0. -1.
      622    1    1    2    0    0  0.21079649810E-01 -0.29855333329E-01  0.36745019928E+01  0.37233453489E+01  0.60000000000E+00 0. -1.
</event>
<event>
 5   0  0.1014700E+04  0.9118800E+02  0.7818608E-02  0.1180000E+00
       11   -1    0    0    0    0  0.00000000000E+00  0.00000000000E+00  0.39999999673E+01  0.40000000000E+01  0.51109989000E-03 0.  1.
     -623   -1    0    0    0    0  0.00000000000E+00  0.00000000000E+00  0.12525980253E-10  0.17130000000E+03  0.17130000000E+03 0. -1.
       11    1    1    2    0    0 -0.61739876883E-02 -0.72316979156E-01  0.13015430733E+00  0.14902438907E+00  0.51109989000E-03 0.  1.
     -623    1    1    2    0    0  0.12188880561E+00  0.79824421807E-01  0.67742758773E-01  0.17130007536E+03  0.17130000000E+03 0. -1.
      622    1    1    2    0    0 -0.11571481792E+00 -0.75074426509E-02  0.38021029013E+01  0.38509002522E+01  0.60000000000E+00 0.  1.
</event>
<event>
 5   0  0.1014700E+04  0.9118800E+02  0.7818608E-02  0.1180000E+00
       11   -1    0    0    0    0  0.00000000000E+00  0.00000000000E+00  0.39999999673E+01  0.40000000000E+01  0.51109989000E-03 0.  1.
     -623   -1    0    0    0    0  0.00000000000E+00  0.00000000000E+00  0.12525980253E-10  0.17130000000E+03  0.17130000000E+03 0. -1.
       11    1    1    2    0    0 -0.13198806839E-02  0.58429455449E-01  0.94060763843E-01  0.11074038047E+00  0.51109989000E-03 0.  1.
     -623    1    1    2    0    0  0.51264579962E-01 -0.34034356310E-01  0.63664772707E-01  0.17130002288E+03  0.17130000000E+03 0. -1.
      622    1    1    2    0    0 -0.49944699278E-01 -0.24395099139E-01  0.38422744308E+01  0.38892367369E+01  0.60000000000E+00 0.  1.
</event>
<event>
 5   0  0.1014700E+04  0.9118800E+02  0.7818608E-02  0.1180000E+00
       11   -1    0    0    0    0  0.00000000000E+00  0.00000000000E+00  0.39999999673E+01  0.40000000000E+01  0.51109989000E-03 0.  1.
     -623   -1    0    0    0    0  0.00000000000E+00  0.00000000000E+00  0.12525980253E-10  0.17130000000E+03  0.17130000000E+03 0.  1.
       11    1    1    2    0    0 -0.15466691474E-01 -0.38417417542E-01  0.12252630339E+00  0.12933705100E+00  0.51109989000E-03 0.  1.
     -623    1    1    2    0    0 -0.47675404119E-01  0.17027472895E-01  0.54194582393E-01  0.17130001605E+03  0.17130000000E+03 0.  1.
      622    1    1    2    0    0  0.63142095592E-01  0.21389944647E-01  0.38232790816E+01  0.38706468955E+01  0.60000000000E+00 0.  1.
</event>
<event>
 5   0  0.1014700E+04  0.9118800E+02  0.7818608E-02  0.1180000E+00
       11   -1    0    0    0    0  0.00000000000E+00  0.00000000000E+00  0.39999999673E+01  0.40000000000E+01  0.51109989000E-03 0. -1.
     -623   -1    0    0    0    0  0.00000000000E+00  0.00000000000E+00  0.12525980253E-10  0.17130000000E+03  0.17130000000E+03 0.  1.
       11    1    1    2    0    0  0.98223939753E-01  0.53674705030E-01  0.36304482933E-01  0.11767409658E+00  0.51109989000E-03 0. -1.
     -623    1    1    2    0    0 -0.23480022621E+00  0.98114556235E-01  0.13369696699E+00  0.17130024119E+03  0.17130000000E+03 0.  1.
      622    1    1    2    0    0  0.13657628646E+00 -0.15178926127E+00  0.38299985174E+01  0.38820847113E+01  0.60000000000E+00 0. -1.
</event>
<event>
 5   0  0.1014700E+04  0.9118800E+02  0.7818608E-02  0.1180000E+00
       11   -1    0    0    0    0  0.00000000000E+00  0.00000000000E+00  0.39999999673E+01  0.40000000000E+01  0.51109989000E-03 0.  1.
     -623   -1    0    0    0    0  0.00000000000E+00  0.00000000000E+00  0.12525980253E-10  0.17130000000E+03  0.17130000000E+03 0.  1.
       11    1    1    2    0    0  0.44851343688E-02 -0.38998389339E-02  0.16831230159E+00  0.16841798378E+00  0.51109989000E-03 0.  1.
     -623    1    1    2    0    0 -0.74486279457E-01 -0.82644955091E-01  0.49056321976E-01  0.17130004316E+03  0.17130000000E+03 0.  1.
      622    1    1    2    0    0  0.70001145089E-01  0.86544794025E-01  0.37826313438E+01  0.38315388612E+01  0.60000000000E+00 0.  1.
</event>
<event>
 5   0  0.1014700E+04  0.9118800E+02  0.7818608E-02  0.1180000E+00
       11   -1    0    0    0    0  0.00000000000E+00  0.00000000000E+00  0.39999999673E+01  0.40000000000E+01  0.51109989000E-03 0.  1.
     -623   -1    0    0    0    0  0.00000000000E+00  0.00000000000E+00  0.12525980253E-10  0.17130000000E+03  0.17130000000E+03 0. -1.
       11    1    1    2    0    0 -0.18467765880E-02  0.34383362890E-02  0.14243016009E-03  0.39388132286E-02  0.51109989000E-03 0.  1.
     -623    1    1    2    0    0  0.67160593715E-02 -0.98640092193E-02  0.49113250622E-01  0.17130000746E+03  0.17130000000E+03 0. -1.
      622    1    1    2    0    0 -0.48692827834E-02  0.64256729304E-02  0.39507442866E+01  0.39960537305E+01  0.60000000000E+00 0.  1.
</event>
<event>
 5   0  0.1014700E+04  0.9118800E+02  0.7818608E-02  0.1180000E+00
       11   -1    0    0    0    0  0.00000000000E+00  0.00000000000E+00  0.39999999673E+01  0.40000000000E+01  0.51109989000E-03 0.  1.
     -623   -1    0    0    0    0  0.00000000000E+00  0.00000000000E+00  0.12525980253E-10  0.17130000000E+03  0.17130000000E+03 0.  1.
       11    1    1    2    0    0 -0.65988161920E-02  0.59887893438E-01  0.31569650956E+00  0.32139485299E+00  0.51109989000E-03 0.  1.
     -623    1    1    2    0    0 -0.78259510067E-01  0.80139615313E-02  0.56615144677E-01  0.17130002742E+03  0.17130000000E+03 0.  1.
      622    1    1    2    0    0  0.84858326259E-01 -0.67901854970E-01  0.36276883131E+01  0.36785777271E+01  0.60000000000E+00 0.  1.
</event>
<event>
 5   0  0.1014700E+04  0.9118800E+02  0.7818608E-02  0.1180000E+00
       11   -1    0    0    0    0  0.00000000000E+00  0.00000000000E+00  0.39999999673E+01  0.40000000000E+01  0.51109989000E-03 0. -1.
     -623   -1    0    0    0    0  0.00000000000E+00  0.00000000000E+00  0.12525980253E-10  0.17130000000E+03  0.17130000000E+03 0. -1.
       11    1    1    2    0    0 -0.62085454720E-01  0.27527416030E-01  0.35617512325E-01  0.76689182604E-01  0.51109989000E-03 0. -1.
     -623    1    1    2    0    0  0.90222276747E-02 -0.64962632107E-01  0.87802056578E-01  0.17130003506E+03  0.17130000000E+03 0. -1.
      622    1    1    2    0    0  0.53063227046E-01  0.37435216077E-01  0.38765803985E+01  0.39232757598E+01  0.60000000000E+00 0. -1.
</event>
<event>
 5   0  0.1014700E+04  0.9118800E+02  0.7818608E-02  0.1180000E+00
       11   -1    0    0    0    0  0.00000000000E+00  0.00000000000E+00  0.39999999673E+01  0.40000000000E+01  0.51109989000E-03 0.  1.
     -623   -1    0    0    0    0  0.00000000000E+00  0.00000000000E+00  0.12525980253E-10  0.17130000000E+03  0.17130000000E+03 0. -1.
       11    1    1    2    0    0 -0.10761434298E-01 -0.36652499277E-02  0.25887193261E-01  0.28278092637E-01  0.51109989000E-03 0.  1.
     -623    1    1    2    0    0  0.43881413134E-01  0.15122672163E-01  0.48142445880E-01  0.17130001305E+03  0.17130000000E+03 0. -1.
      622    1    1    2    0    0 -0.33119978836E-01 -0.11457422236E-01  0.39259703282E+01  0.39717088543E+01  0.60000000000E+00 0.  1.
</event>
<event>
 5   0  0.1014700E+04  0.9118800E+02  0.7818608E-02  0.1180000E+00
       11   -1    0    0    0    0  0.00000000000E+00  0.00000000000E+00  0.39999999673E+01  0.40000000000E+01  0.51109989000E-03 0. -1.
     -623   -1    0    0    0    0  0.00000000000E+00  0.00000000000E+00  0.12525980253E-10  0.17130000000E+03  0.17130000000E+03 0.  1.
       11    1    1    2    0    0 -0.38217773406E-01  0.41012318793E-01  0.33858381913E-01  0.65492440365E-01  0.51109989000E-03 0. -1.
     -623    1    1    2    0    0 -0.95321740922E-01  0.58869522100E-01  0.81286312110E-01  0.17130005592E+03  0.17130000000E+03 0.  1.
      622    1    1    2    0    0  0.13353951433E+00 -0.99881840893E-01  0.38848552733E+01  0.39344516364E+01  0.60000000000E+00 0. -1.
</event>
<event>
 5   0  0.1014700E+04  0.9118800E+02  0.7818608E-02  0.1180000E+00
       11   -1    0    0    0    0  0.00000000000E+00  0.00000000000E+00  0.39999999673E+01  0.40000000000E+01  0.51109989000E-03 0. -1.
     -623   -1    0    0    0    0  0.00000000000E+00  0.00000000000E+00  0.12525980253E-10  0.17130000000E+03  0.17130000000E+03 0. -1.
       11    1    1    2    0    0  0.16176521042E-01  0.11732439180E+00  0.28324108146E+00  0.30700564196E+00  0.51109989000E-03 0. -1.
     -623    1    1    2    0    0 -0.22361578972E-01 -0.13360500766E+00  0.72943069355E-01  0.17130006909E+03  0.17130000000E+03 0. -1.
      622    1    1    2    0    0  0.61850579295E-02  0.16280615862E-01  0.36438158165E+01  0.36929252657E+01  0.60000000000E+00 0. -1.
</event>
<event>
 5   0  0.1014700E+04  0.9118800E+02  0.7818608E-02  0.1180000E+00
       11   -1    0    0    0    0  0.00000000000E+00  0.00000000000E+00  0.39999999673E+01  0.40000000000E+01  0.51109989000E-03 0.  1.
     -623   -1    0    0    0    0  0.00000000000E+00  0.00000000000E+00  0.12525980253E-10  0.17130000000E+03  0.17130000000E+03 0. -1.
       11    1    1    2    0    0 -0.98264362319E-02 -0.86750526529E-02  0.12678997861E-01  0.18243727580E-01  0.51109989000E-03 0.  1.
     -623    1    1    2    0    0 -0.21368873782E-01  0.77728256167E-01  0.51786935377E-01  0.17130002680E+03  0.17130000000E+03 0. -1.
      622    1    1    2    0    0  0.31195310014E-01 -0.69053203514E-01  0.39355340341E+01  0.39817294767E+01  0.60000000000E+00 0.  1.
</event>
<event>
 5   0  0.1014700E+04  0.9118800E+02  0.7818608E-02  0.1180000E+00
       11   -1    0    0    0    0  0.00000000000E+00  0.00000000000E+00  0.39999999673E+01  0.40000000000E+01  0.51109989000E-03 0.  1.
     -623   -1    0    0    0    0  0.00000000000E+00  0.00000000000E+00  0.12525980253E-10  0.17130000000E+03  0.17130000000E+03 0.  1.
       11    1    1    2    0    0 -0.58533387125E-01  0.39876163010E-01  0.79764618646E-01  0.10667202724E+00  0.51109989000E-03 0.  1.
     -623    1    1    2    0    0  0.23460860002E-02 -0.63884288717E-01  0.73931644013E-01  0.17130002788E+03  0.17130000000E+03 0.  1.
      622    1    1    2    0    0  0.56187301125E-01  0.24008125707E-01  0.38463037047E+01  0.38933000901E+01  0.60000000000E+00 0.  1.
</event>
<event>
 5   0  0.1014700E+04  0.9118800E+02  0.7818608E-02  0.1180000E+00
       11   -1    0    0    0    0  0.00000000000E+00  0.00000000000E+00  0.39999999673E+01  0.40000000000E+01  0.51109989000E-03 0.  1.
     -623   -1    0    0    0    0  0.00000000000E+00  0.00000000000E+00  0.12525980253E-10  0.17130000000E+03  0.17130000000E+03 0.  1.
       11    1    1    2    0    0  0.24010340836E-01  0.17286290935E-01 -0.19130745671E-01  0.35235762719E-01  0.51109989000E-03 0.  1.
     -623    1    1    2    0    0  0.10801357491E+00 -0.24892696814E+00  0.10936259080E+00  0.17130024983E+03  0.17130000000E+03 0.  1.
      622    1    1    2    0    0 -0.13202391575E+00  0.23164067720E+00  0.39097681222E+01  0.39645144075E+01  0.60000000000E+00 0.  1.
</event>
<event>
 5   0  0.1014700E+04  0.9118800E+02  0.7818608E-02  0.1180000E+00
       11   -1    0    0    0    0  0.00000000000E+00  0.00000000000E+00  0.39999999673E+01  0.40000000000E+01  0.51109989000E-03 0.  1.
     -623   -1    0    0    0    0  0.00000000000E+00  0.00000000000E+00  0.12525980253E-10  0.17130000000E+03  0.17130000000E+03 0.  1.
       11    1    1    2    0    0 -0.22413915229E-01  0.21560591792E-01 -0.25189030784E-02  0.31206550757E-01  0.51109989000E-03 0.  1.
     -623    1    1    2    0    0  0.80129349050E-01  0.11814527953E-01  0.79946194138E-01  0.17130003780E+03  0.17130000000E+03 0.  1.
      622    1    1    2    0    0 -0.57715433820E-01 -0.33375119744E-01  0.39225726763E+01  0.39687556451E+01  0.60000000000E+00 0.  1.
</event>
<event>
 5   0  0.1014700E+04  0.9118800E+02  0.7818608E-02  0.1180000E+00
       11   -1    0    0    0    0  0.00000000000E+00  0.00000000000E+00  0.39999999673E+01  0.40000000000E+01  0.51109989000E-03 0.  1.
     -623   -1    0    0    0    0  0.00000000000E+00  0.00000000000E+00  0.12525980253E-10  0.17130000000E+03  0.17130000000E+03 0. -1.
       11    1    1    2    0    0  0.23843627068E-01 -0.10114610012E-01  0.13322406569E-01  0.29130252786E-01  0.51109989000E-03 0.  1.
     -623    1    1    2    0    0  0.11912394839E-01 -0.12633756347E-01  0.61640554335E-01  0.17130001197E+03  0.17130000000E+03 0. -1.
      622    1    1    2    0    0 -0.35756021908E-01  0.22748366359E-01  0.39250370065E+01  0.39708577768E+01  0.60000000000E+00 0.  1.
</event>
<event>
 5   0  0.1014700E+04  0.9118800E+02  0.7818608E-02  0.1180000E+00
       11   -1    0    0    0    0  0.00000000000E+00  0.00000000000E+00  0.39999999673E+01  0.40000000000E+01  0.51109989000E-03 0.  1.
     -623   -1    0    0    0    0  0.00000000000E+00  0.00000000000E+00  0.12525980253E-10  0.17130000000E+03  0.17130000000E+03 0. -1.
       11    1    1    2    0    0 -0.36426112981E-01  0.69658316225E-02  0.28542235259E-01  0.46800693732E-01  0.51109989000E-03 0.  1.
     -623    1    1    2    0    0  0.53562945079E-01 -0.11539341458E-01  0.64117714769E-01  0.17130002076E+03  0.17130000000E+03 0. -1.
      622    1    1    2    0    0 -0.17136832097E-01  0.45735098359E-02  0.39073400173E+01  0.39531785438E+01  0.60000000000E+00 0.  1.
</event>
<event>
 5   0  0.1014700E+04  0.9118800E+02  0.7818608E-02  0.1180000E+00
       11   -1    0    0    0    0  0.00000000000E+00  0.00000000000E+00  0.39999999673E+01  0.40000000000E+01  0.51109989000E-03 0. -1.
     -623   -1    0    0    0    0  0.00000000000E+00  0.00000000000E+00  0.12525980253E-10  0.17130000000E+03  0.17130000000E+03 0.  1.
       11    1    1    2    0    0 -0.11600390037E+00  0.77592819073E-01  0.44946543184E+00  0.47063466310E+00  0.51109989000E-03 0. -1.
     -623    1    1    2    0    0 -0.54636852538E-02 -0.28051465151E+00  0.80847004228E-01  0.17130024885E+03  0.17130000000E+03 0.  1.
      622    1    1    2    0    0  0.12146758562E+00  0.20292183243E+00  0.34696875313E+01  0.35291164913E+01  0.60000000000E+00 0.  0.
</event>
<event>
 5   0  0.1014700E+04  0.9118800E+02  0.7818608E-02  0.1180000E+00
       11   -1    0    0    0    0  0.00000000000E+00  0.00000000000E+00  0.39999999673E+01  0.40000000000E+01  0.51109989000E-03 0.  1.
     -623   -1    0    0    0    0  0.00000000000E+00  0.00000000000E+00  0.12525980253E-10  0.17130000000E+03  0.17130000000E+03 0. -1.
       11    1    1    2    0    0  0.33839742359E-01  0.14410774446E+00  0.13309530279E+00  0.19906479101E+00  0.51109989000E-03 0.  1.
     -623    1    1    2    0    0  0.19623032551E+00  0.75791171109E-01  0.12732191253E+00  0.17130017648E+03  0.17130000000E+03 0. -1.
      622    1    1    2    0    0 -0.23007006787E+00 -0.21989891557E+00  0.37395827520E+01  0.38007587306E+01  0.60000000000E+00 0.  1.
</event>
<event>
 5   0  0.1014700E+04  0.9118800E+02  0.7818608E-02  0.1180000E+00
       11   -1    0    0    0    0  0.00000000000E+00  0.00000000000E+00  0.39999999673E+01  0.40000000000E+01  0.51109989000E-03 0.  1.
     -623   -1    0    0    0    0  0.00000000000E+00  0.00000000000E+00  0.12525980253E-10  0.17130000000E+03  0.17130000000E+03 0. -1.
       11    1    1    2    0    0  0.24754214421E-01  0.11653258212E+00  0.71892865880E+00  0.72873266120E+00  0.51109989000E-03 0.  1.
     -623    1    1    2    0    0 -0.13012461377E+00  0.86206881128E-01  0.73515335992E-01  0.17130008689E+03  0.17130000000E+03 0. -1.
      622    1    1    2    0    0  0.10537039935E+00 -0.20273946325E+00  0.32075559726E+01  0.32711804487E+01  0.60000000000E+00 0.  1.
</event>
<event>
 5   0  0.1014700E+04  0.9118800E+02  0.7818608E-02  0.1180000E+00
       11   -1    0    0    0    0  0.00000000000E+00  0.00000000000E+00  0.39999999673E+01  0.40000000000E+01  0.51109989000E-03 0. -1.
     -623   -1    0    0    0    0  0.00000000000E+00  0.00000000000E+00  0.12525980253E-10  0.17130000000E+03  0.17130000000E+03 0. -1.
       11    1    1    2    0    0 -0.28038067118E+00  0.12749579499E+00  0.27404990789E+00  0.41227674170E+00  0.51109989000E-03 0. -1.
     -623    1    1    2    0    0  0.51270159612E-01 -0.57890747487E-01  0.19700069225E+00  0.17130013073E+03  0.17130000000E+03 0. -1.
      622    1    1    2    0    0  0.22911051156E+00 -0.69605047507E-01  0.35289493672E+01  0.35875925250E+01  0.60000000000E+00 0.  0.
</event>
<event>
 5   0  0.1014700E+04  0.9118800E+02  0.7818608E-02  0.1180000E+00
       11   -1    0    0    0    0  0.00000000000E+00  0.00000000000E+00  0.39999999673E+01  0.40000000000E+01  0.51109989000E-03 0. -1.
     -623   -1    0    0    0    0  0.00000000000E+00  0.00000000000E+00  0.12525980253E-10  0.17130000000E+03  0.17130000000E+03 0. -1.
       11    1    1    2    0    0  0.50412228284E-01 -0.47335983648E-01  0.27437113992E-01  0.74398552108E-01  0.51109989000E-03 0. -1.
     -623    1    1    2    0    0 -0.12398991170E-01 -0.57594314786E-01  0.94727609529E-01  0.17130003632E+03  0.17130000000E+03 0. -1.
      622    1    1    2    0    0 -0.38013237114E-01  0.10493029843E+00  0.38778352438E+01  0.39255651252E+01  0.60000000000E+00 0. -1.
</event>
<event>
 5   0  0.1014700E+04  0.9118800E+02  0.7818608E-02  0.1180000E+00
       11   -1    0    0    0    0  0.00000000000E+00  0.00000000000E+00  0.39999999673E+01  0.40000000000E+01  0.51109989000E-03 0.  1.
     -623   -1    0    0    0    0  0.00000000000E+00  0.00000000000E+00  0.12525980253E-10  0.17130000000E+03  0.17130000000E+03 0. -1.
       11    1    1    2    0    0 -0.99060685877E-02  0.12318035607E-01  0.17602608896E-01  0.23663838600E-01  0.51109989000E-03 0.  1.
     -623    1    1    2    0    0 -0.10384591791E-01 -0.90352746164E-01  0.52449231158E-01  0.17130003217E+03  0.17130000000E+03 0. -1.
      622    1    1    2    0    0  0.20290660379E-01  0.78034710558E-01  0.39299481273E+01  0.39763039887E+01  0.60000000000E+00 0.  1.
</event>
<event>
 5   0  0.1014700E+04  0.9118800E+02  0.7818608E-02  0.1180000E+00
       11   -1    0    0    0    0  0.00000000000E+00  0.00000000000E+00  0.39999999673E+01  0.40000000000E+01  0.51109989000E-03 0. -1.
     -623   -1    0    0    0    0  0.00000000000E+00  0.00000000000E+00  0.12525980253E-10  0.17130000000E+03  0.17130000000E+03 0.  1.
       11    1    1    2    0    0 -0.17261348784E-01 -0.70631359444E-02 -0.36861177795E-02  0.19018168645E-01  0.51109989000E-03 0. -1.
     -623    1    1    2    0    0  0.25802826772E-01  0.45373246467E-03  0.68209481324E-01  0.17130001552E+03  0.17130000000E+03 0.  1.
      622    1    1    2    0    0 -0.85414779879E-02  0.66094034797E-02  0.39354766038E+01  0.39809663074E+01  0.60000000000E+00 0. -1.
</event>
<event>
 5   0  0.1014700E+04  0.9118800E+02  0.7818608E-02  0.1180000E+00
       11   -1    0    0    0    0  0.00000000000E+00  0.00000000000E+00  0.39999999673E+01  0.40000000000E+01  0.51109989000E-03 0. -1.
     -623   -1    0    0    0    0  0.00000000000E+00  0.00000000000E+00  0.12525980253E-10  0.17130000000E+03  0.17130000000E+03 0.  1.
       11    1    1    2    0    0 -0.10476938532E-02  0.19346798921E-01  0.25612633184E-01  0.32119534439E-01  0.51109989000E-03 0. -1.
     -623    1    1    2    0    0  0.15991907157E-01 -0.25808548039E-01  0.52178021858E-01  0.17130001064E+03  0.17130000000E+03 0.  1.
      622    1    1    2    0    0 -0.14944213304E-01  0.64617491176E-02  0.39222093123E+01  0.39678698282E+01  0.60000000000E+00 0. -1.
</event>
<event>
 5   0  0.1014700E+04  0.9118800E+02  0.7818608E-02  0.1180000E+00
       11   -1    0    0    0    0  0.00000000000E+00  0.00000000000E+00  0.39999999673E+01  0.40000000000E+01  0.51109989000E-03 0. -1.
     -623   -1    0    0    0    0  0.00000000000E+00  0.00000000000E+00  0.12525980253E-10  0.17130000000E+03  0.17130000000E+03 0.  1.
       11    1    1    2    0    0 -0.97325958489E-01  0.55376412789E-02  0.32139636457E-01  0.10264611596E+00  0.51109989000E-03 0. -1.
     -623    1    1    2    0    0 -0.14435773815E-01 -0.14841539582E+00  0.12135261264E+00  0.17130010789E+03  0.17130000000E+03 0.  1.
      622    1    1    2    0    0  0.11176173230E+00  0.14287775455E+00  0.38465077183E+01  0.38972459974E+01  0.60000000000E+00 0. -1.
</event>
<event>
 5   0  0.1014700E+04  0.9118800E+02  0.7818608E-02  0.1180000E+00
       11   -1    0    0    0    0  0.00000000000E+00  0.00000000000E+00  0.39999999673E+01  0.40000000000E+01  0.51109989000E-03 0. -1.
     -623   -1    0    0    0    0  0.00000000000E+00  0.00000000000E+00  0.12525980253E-10  0.17130000000E+03  0.17130000000E+03 0. -1.
       11    1    1    2    0    0  0.11143056716E+00 -0.40327153099E-01  0.36020074863E+00  0.37919373822E+00  0.51109989000E-03 0. -1.
     -623    1    1    2    0    0  0.40382770176E-01  0.10580931053E+00  0.72935157460E-01  0.17130005297E+03  0.17130000000E+03 0. -1.
      622    1    1    2    0    0 -0.15181333734E+00 -0.65482157427E-01  0.35668640613E+01  0.36207532965E+01  0.60000000000E+00 0. -1.
</event>
<event>
 5   0  0.1014700E+04  0.9118800E+02  0.7818608E-02  0.1180000E+00
       11   -1    0    0    0    0  0.00000000000E+00  0.00000000000E+00  0.39999999673E+01  0.40000000000E+01  0.51109989000E-03 0. -1.
     -623   -1    0    0    0    0  0.00000000000E+00  0.00000000000E+00  0.12525980253E-10  0.17130000000E+03  0.17130000000E+03 0.  1.
       11    1    1    2    0    0  0.20269963966E-01  0.15508430740E-01  0.14312706087E-02  0.25567413280E-01  0.51109989000E-03 0. -1.
     -623    1    1    2    0    0 -0.40730711803E-01 -0.20008916108E-01  0.69762925139E-01  0.17130002022E+03  0.17130000000E+03 0.  1.
      622    1    1    2    0    0  0.20460747837E-01  0.45004853687E-02  0.39288057716E+01  0.39744123701E+01  0.60000000000E+00 0. -1.
</event>
<event>
 5   0  0.1014700E+04  0.9118800E+02  0.7818608E-02  0.1180000E+00
       11   -1    0    0    0    0  0.00000000000E+00  0.00000000000E+00  0.39999999673E+01  0.40000000000E+01  0.51109989000E-03 0. -1.
     -623   -1    0    0    0    0  0.00000000000E+00  0.00000000000E+00  0.12525980253E-10  0.17130000000E+03  0.17130000000E+03 0. -1.
       11    1    1    2    0    0  0.55385345933E+00  0.91371426300E-01  0.95117114168E+00  0.11044587787E+01  0.51109989000E-03 0. -1.
     -623    1    1    2    0    0 -0.29240049811E+00 -0.69584954835E-01  0.22873744533E+00  0.17130041641E+03  0.17130000000E+03 0. -1.
      622    1    1    2    0    0 -0.26145296122E+00 -0.21786471466E-01  0.28200913803E+01  0.28951248151E+01  0.60000000000E+00 0.  0.
</event>
<event>
 5   0  0.1014700E+04  0.9118800E+02  0.7818608E-02  0.1180000E+00
       11   -1    0    0    0    0  0.00000000000E+00  0.00000000000E+00  0.39999999673E+01  0.40000000000E+01  0.51109989000E-03 0.  1.
     -623   -1    0    0    0    0  0.00000000000E+00  0.00000000000E+00  0.12525980253E-10  0.17130000000E+03  0.17130000000E+03 0. -1.
       11    1    1    2    0    0  0.59159281124E-01 -0.13196756855E-01  0.26804995429E-01  0.66277778606E-01  0.51109989000E-03 0.  1.
     -623    1    1    2    0    0 -0.59585208630E-01 -0.33486212264E-01  0.85816081397E-01  0.17130003513E+03  0.17130000000E+03 0. -1.
      622    1    1    2    0    0  0.42592750597E-03  0.46682969119E-01  0.38873788905E+01  0.39336870897E+01  0.60000000000E+00 0.  1.
</event>
<event>
 5   0  0.1014700E+04  0.9118800E+02  0.7818608E-02  0.1180000E+00
       11   -1    0    0    0    0  0.00000000000E+00  0.00000000000E+00  0.39999999673E+01  0.40000000000E+01  0.51109989000E-03 0. -1.
     -623   -1    0    0    0    0  0.00000000000E+00  0.00000000000E+00  0.12525980253E-10  0.17130000000E+03  0.17130000000E+03 0. -1.
       11    1    1    2    0    0 -0.14584810701E-02 -0.21894184481E-01  0.39740696557E-01  0.45398972092E-01  0.51109989000E-03 0. -1.
     -623    1    1    2    0    0 -0.60246546298E-01  0.51796600285E-01  0.52067961719E-01  0.17130002634E+03  0.17130000000E+03 0. -1.
      622    1    1    2    0    0  0.61705027368E-01 -0.29902415804E-01  0.39081913091E+01  0.39545746893E+01  0.60000000000E+00 0. -1.
</event>
<event>
 5   0  0.1014700E+04  0.9118800E+02  0.7818608E-02  0.1180000E+00
       11   -1    0    0    0    0  0.00000000000E+00  0.00000000000E+00  0.39999999673E+01  0.40000000000E+01  0.51109989000E-03 0. -1.
     -623   -1    0    0    0    0  0.00000000000E+00  0.00000000000E+00  0.12525980253E-10  0.17130000000E+03  0.17130000000E+03 0. -1.
       11    1    1    2    0    0 -0.29532272257E-01 -0.41563591824E-01  0.11472970246E+01  0.11484295413E+01  0.51109989000E-03 0. -1.
     -623    1    1    2    0    0 -0.54285336457E-01 -0.49051916545E-01  0.67733995357E-01  0.17130002902E+03  0.17130000000E+03 0. -1.
      622    1    1    2    0    0  0.83817608714E-01  0.90615508369E-01  0.27849689474E+01  0.28515414427E+01  0.60000000000E+00 0. -1.
</event>
<event>
 5   0  0.1014700E+04  0.9118800E+02  0.7818608E-02  0.1180000E+00
       11   -1    0    0    0    0  0.00000000000E+00  0.00000000000E+00  0.39999999673E+01  0.40000000000E+01  0.51109989000E-03 0. -1.
     -623   -1    0    0    0    0  0.00000000000E+00  0.00000000000E+00  0.12525980253E-10  0.17130000000E+03  0.17130000000E+03 0. -1.
       11    1    1    2    0    0  0.23413870911E-02  0.39903506134E-01  0.22525885814E-01  0.45885168084E-01  0.51109989000E-03 0. -1.
     -623    1    1    2    0    0  0.33602155236E-01 -0.60760016305E-01  0.69395943996E-01  0.17130002813E+03  0.17130000000E+03 0. -1.
      622    1    1    2    0    0 -0.35943542327E-01  0.20856510171E-01  0.39080781376E+01  0.39540867038E+01  0.60000000000E+00 0. -1.
</event>
<event>
 5   0  0.1014700E+04  0.9118800E+02  0.7818608E-02  0.1180000E+00
       11   -1    0    0    0    0  0.00000000000E+00  0.00000000000E+00  0.39999999673E+01  0.40000000000E+01  0.51109989000E-03 0.  1.
     -623   -1    0    0    0    0  0.00000000000E+00  0.00000000000E+00  0.12525980253E-10  0.17130000000E+03  0.17130000000E+03 0. -1.
       11    1    1    2    0    0  0.28643930733E+00 -0.35145236287E-01  0.10390230954E+01  0.10783561186E+01  0.51109989000E-03 0.  1.
     -623    1    1    2    0    0 -0.14999966485E+00  0.27493830495E-03  0.10517596102E+00  0.17130009796E+03  0.17130000000E+03 0. -1.
      622    1    1    2    0    0 -0.13643964247E+00  0.34870297982E-01  0.28558009109E+01  0.29215459190E+01  0.60000000000E+00 0.  0.
</event>
<event>
 5   0  0.1014700E+04  0.9118800E+02  0.7818608E-02  0.1180000E+00
       11   -1    0    0    0    0  0.00000000000E+00  0.00000000000E+00  0.39999999673E+01  0.40000000000E+01  0.51109989000E-03 0. -1.
     -623   -1    0    0    0    0  0.00000000000E+00  0.00000000000E+00  0.12525980253E-10  0.17130000000E+03  0.17130000000E+03 0. -1.
       11    1    1    2    0    0  0.15305283476E+00 -0.19860873874E+00  0.88272803552E+00  0.91764897823E+00  0.51109989000E-03 0. -1.
     -623    1    1    2    0    0 -0.13167523492E+00  0.16351496618E-01  0.99538005796E-01  0.17130008031E+03  0.17130000000E+03 0. -1.
      622    1    1    2    0    0 -0.21377599838E-01  0.18225724213E+00  0.30177339260E+01  0.30822707137E+01  0.60000000000E+00 0. -1.
</event>
<event>
 5   0  0.1014700E+04  0.9118800E+02  0.7818608E-02  0.1180000E+00
       11   -1    0    0    0    0  0.00000000000E+00  0.00000000000E+00  0.39999999673E+01  0.40000000000E+01  0.51109989000E-03 0. -1.
     -623   -1    0    0    0    0  0.00000000000E+00  0.00000000000E+00  0.12525980253E-10  0.17130000000E+03  0.17130000000E+03 0.  1.
       11    1    1    2    0    0 -0.11095512386E-02 -0.29265563519E-01  0.39965457884E-02  0.29562440924E-01  0.51109989000E-03 0. -1.
     -623    1    1    2    0    0  0.20337821085E-02 -0.14307101210E-01  0.71420397894E-01  0.17130001550E+03  0.17130000000E+03 0.  1.
      622    1    1    2    0    0 -0.92423086983E-03  0.43572664729E-01  0.39245830237E+01  0.39704220608E+01  0.60000000000E+00 0. -1.
</event>
<event>
 5   0  0.1014700E+04  0.9118800E+02  0.7818608E-02  0.1180000E+00
       11   -1    0    0    0    0  0.00000000000E+00  0.00000000000E+00  0.39999999673E+01  0.40000000000E+01  0.51109989000E-03 0.  1.
     -623   -1    0    0    0    0  0.00000000000E+00  0.00000000000E+00  0.12525980253E-10  0.17130000000E+03  0.17130000000E+03 0. -1.
       11    1    1    2    0    0 -0.33962344433E-01  0.25966827695E-01  0.23551735238E+00  0.23936666742E+00  0.51109989000E-03 0.  1.
     -623    1    1    2    0    0 -0.19912020574E-01  0.15417922086E-01  0.52653802903E-01  0.17130000994E+03  0.17130000000E+03 0. -1.
      622    1    1    2    0    0  0.53874365007E-01 -0.41384749781E-01  0.37118288121E+01  0.37606233891E+01  0.60000000000E+00 0.  1.
</event>
<event>
 5   0  0.1014700E+04  0.9118800E+02  0.7818608E-02  0.1180000E+00
       11   -1    0    0    0    0  0.00000000000E+00  0.00000000000E+00  0.39999999673E+01  0.40000000000E+01  0.51109989000E-03 0.  1.
     -623   -1    0    0    0    0  0.00000000000E+00  0.00000000000E+00  0.12525980253E-10  0.17130000000E+03  0.17130000000E+03 0. -1.
       11    1    1    2    0    0  0.47380642211E-02 -0.14787915888E+00  0.67092198408E+00  0.68704240395E+00  0.51109989000E-03 0.  1.
     -623    1    1    2    0    0  0.63672881436E-01  0.17341363063E+00  0.71840479727E-01  0.17130011467E+03  0.17130000000E+03 0. -1.
      622    1    1    2    0    0 -0.68410945657E-01 -0.25534471752E-01  0.32572375036E+01  0.33128429213E+01  0.60000000000E+00 0.  1.
</event>
<event>
 5   0  0.1014700E+04  0.9118800E+02  0.7818608E-02  0.1180000E+00
       11   -1    0    0    0    0  0.00000000000E+00  0.00000000000E+00  0.39999999673E+01  0.40000000000E+01  0.51109989000E-03 0. -1.
     -623   -1    0    0    0    0  0.00000000000E+00  0.00000000000E+00  0.12525980253E-10  0.17130000000E+03  0.17130000000E+03 0.  1.
       11    1    1    2    0    0 -0.28093992546E-01  0.18624829665E+00  0.57620751787E+00  0.60621206297E+00  0.51109989000E-03 0. -1.
     -623    1    1    2    0    0  0.18949164901E+00 -0.41160312119E-02  0.92472279735E-01  0.17130012982E+03  0.17130000000E+03 0.  1.
      622    1    1    2    0    0 -0.16139765646E+00 -0.18213226544E+00  0.33313201698E+01  0.33936581205E+01  0.60000000000E+00 0. -1.
</event>
<event>
 5   0  0.1014700E+04  0.9118800E+02  0.7818608E-02  0.1180000E+00
       11   -1    0    0    0    0  0.00000000000E+00  0.00000000000E+00  0.39999999673E+01  0.40000000000E+01  0.51109989000E-03 0. -1.
     -623   -1    0    0    0    0  0.00000000000E+00  0.00000000000E+00  0.12525980253E-10  0.17130000000E+03  0.17130000000E+03 0. -1.
       11    1    1    2    0    0 -0.23199431183E-01  0.28682996318E-01  0.37453789878E-01  0.52573524556E-01  0.51109989000E-03 0. -1.
     -623    1    1    2    0    0  0.70613361774E-02 -0.21724481905E-01  0.61037617554E-01  0.17130001240E+03  0.17130000000E+03 0. -1.
      622    1    1    2    0    0  0.16138095006E-01 -0.69585144125E-02  0.39015085599E+01  0.39474140779E+01  0.60000000000E+00 0. -1.
</event>
<event>
 5   0  0.1014700E+04  0.9118800E+02  0.7818608E-02  0.1180000E+00
       11   -1    0    0    0    0  0.00000000000E+00  0.00000000000E+00  0.39999999673E+01  0.40000000000E+01  0.51109989000E-03 0.  1.
     -623   -1    0    0    0    0  0.00000000000E+00  0.00000000000E+00  0.12525980253E-10  0.17130000000E+03  0.17130000000E+03 0. -1.
       11    1    1    2    0    0  0.48312417330E-01  0.80890020281E-01  0.69866389816E+00  0.70498850265E+00  0.51109989000E-03 0.  1.
     -623    1    1    2    0    0 -0.27104325708E-01 -0.36651182490E-01  0.61802079460E-01  0.17130001721E+03  0.17130000000E+03 0. -1.
      622    1    1    2    0    0 -0.21208091622E-01 -0.44238837792E-01  0.32395339897E+01  0.32949942835E+01  0.60000000000E+00 0.  1.
</event>
<event>
 5   0  0.1014700E+04  0.9118800E+02  0.7818608E-02  0.1180000E+00
       11   -1    0    0    0    0  0.00000000000E+00  0.00000000000E+00  0.39999999673E+01  0.40000000000E+01  0.51109989000E-03 0. -1.
     -623   -1    0    0    0    0  0.00000000000E+00  0.00000000000E+00  0.12525980253E-10  0.17130000000E+03  0.17130000000E+03 0.  1.
       11    1    1    2    0    0 -0.33570614772E-01 -0.44789536392E-01  0.15704545503E+00  0.16672319848E+00  0.51109989000E-03 0. -1.
     -623    1    1    2    0    0  0.26241619268E-01  0.62926824710E-01  0.56999991021E-01  0.17130002305E+03  0.17130000000E+03 0.  1.
      622    1    1    2    0    0  0.73289955039E-02 -0.18137288319E-01  0.37859545213E+01  0.38332537501E+01  0.60000000000E+00 0. -1.
</event>
<event>
 5   0  0.1014700E+04  0.9118800E+02  0.7818608E-02  0.1180000E+00
       11   -1    0    0    0    0  0.00000000000E+00  0.00000000000E+00  0.39999999673E+01  0.40000000000E+01  0.51109989000E-03 0.  1.
     -623   -1    0    0    0    0  0.00000000000E+00  0.00000000000E+00  0.12525980253E-10  0.17130000000E+03  0.17130000000E+03 0. -1.
       11    1    1    2    0    0  0.51235104091E-01  0.22994948276E-01  0.20987149827E+00  0.21725586423E+00  0.51109989000E-03 0.  1.
     -623    1    1    2    0    0  0.37923500500E-01 -0.33238667854E-01  0.56367270496E-01  0.17130001670E+03  0.17130000000E+03 0. -1.
      622    1    1    2    0    0 -0.89158604591E-01  0.10243719578E-01  0.37337611986E+01  0.37827274391E+01  0.60000000000E+00 0.  1.
</event>
<event>
 5   0  0.1014700E+04  0.9118800E+02  0.7818608E-02  0.1180000E+00
       11   -1    0    0    0    0  0.00000000000E+00  0.00000000000E+00  0.39999999673E+01  0.40000000000E+01  0.51109989000E-03 0.  1.
     -623   -1    0    0    0    0  0.00000000000E+00  0.00000000000E+00  0.12525980253E-10  0.17130000000E+03  0.17130000000E+03 0.  1.
       11    1    1    2    0    0 -0.35675870434E-01 -0.20598947544E-01  0.13306090275E-01  0.43294314092E-01  0.51109989000E-03 0.  1.
     -623    1    1    2    0    0  0.65043753489E-01 -0.32848365073E-01  0.76253512131E-01  0.17130003247E+03  0.17130000000E+03 0.  1.
      622    1    1    2    0    0 -0.29367883055E-01  0.53447312617E-01  0.39104403650E+01  0.39566732157E+01  0.60000000000E+00 0.  1.
</event>
<event>
 5   0  0.1014700E+04  0.9118800E+02  0.7818608E-02  0.1180000E+00
       11   -1    0    0    0    0  0.00000000000E+00  0.00000000000E+00  0.39999999673E+01  0.40000000000E+01  0.51109989000E-03 0.  1.
     -623   -1    0    0    0    0  0.00000000000E+00  0.00000000000E+00  0.12525980253E-10  0.17130000000E+03  0.17130000000E+03 0.  1.
       11    1    1    2    0    0  0.34282257806E-02 -0.22241721789E-02  0.10974236015E+00  0.10981960892E+00  0.51109989000E-03 0.  1.
     -623    1    1    2    0    0 -0.14513491548E-01  0.36250102252E-02  0.46649389995E-01  0.17130000701E+03  0.17130000000E+03 0.  1.
      622    1    1    2    0    0  0.11085265767E-01 -0.14008380463E-02  0.38436082172E+01  0.38901733860E+01  0.60000000000E+00 0.  1.
</event>
<event>
 5   0  0.1014700E+04  0.9118800E+02  0.7818608E-02  0.1180000E+00
       11   -1    0    0    0    0  0.00000000000E+00  0.00000000000E+00  0.39999999673E+01  0.40000000000E+01  0.51109989000E-03 0. -1.
     -623   -1    0    0    0    0  0.00000000000E+00  0.00000000000E+00  0.12525980253E-10  0.17130000000E+03  0.17130000000E+03 0.  1.
       11    1    1    2    0    0 -0.59596753492E-01  0.42819370124E-01  0.10577898835E+00  0.12874287197E+00  0.51109989000E-03 0. -1.
     -623    1    1    2    0    0  0.68289647413E-01  0.17535100588E-01  0.70258423237E-01  0.17130002892E+03  0.17130000000E+03 0.  1.
      622    1    1    2    0    0 -0.86928939216E-02 -0.60354470713E-01  0.38239625558E+01  0.38712282103E+01  0.60000000000E+00 0. -1.
</event>
<event>
 5   0  0.1014700E+04  0.9118800E+02  0.7818608E-02  0.1180000E+00
       11   -1    0    0    0    0  0.00000000000E+00  0.00000000000E+00  0.39999999673E+01  0.40000000000E+01  0.51109989000E-03 0. -1.
     -623   -1    0    0    0    0  0.00000000000E+00  0.00000000000E+00  0.12525980253E-10  0.17130000000E+03  0.17130000000E+03 0. -1.
       11    1    1    2    0    0  0.10183187863E+00 -0.93299435385E-01  0.57267116979E+00  0.58909001527E+00  0.51109989000E-03 0. -1.
     -623    1    1    2    0    0 -0.74296331984E-01 -0.56432002133E-01  0.73100199156E-01  0.17130004100E+03  0.17130000000E+03 0. -1.
      622    1    1    2    0    0 -0.27535546644E-01  0.14973143752E+00  0.33542285984E+01  0.34108689802E+01  0.60000000000E+00 0. -1.
</event>
<event>
 5   0  0.1014700E+04  0.9118800E+02  0.7818608E-02  0.1180000E+00
       11   -1    0    0    0    0  0.00000000000E+00  0.00000000000E+00  0.39999999673E+01  0.40000000000E+01  0.51109989000E-03 0.  1.
     -623   -1    0    0    0    0  0.00000000000E+00  0.00000000000E+00  0.12525980253E-10  0.17130000000E+03  0.17130000000E+03 0. -1.
       11    1    1    2    0    0 -0.73175762236E-02  0.11382406837E-02  0.48191722981E-01  0.48760085096E-01  0.51109989000E-03 0.  1.
     -623    1    1    2    0    0 -0.39939263198E-01 -0.56650227108E-01  0.47090571208E-01  0.17130002050E+03  0.17130000000E+03 0. -1.
      622    1    1    2    0    0  0.47256839421E-01  0.55511986424E-01  0.39047176732E+01  0.39512194189E+01  0.60000000000E+00 0.  1.
</event>
<event>
 5   0  0.1014700E+04  0.9118800E+02  0.7818608E-02  0.1180000E+00
       11   -1    0    0    0    0  0.00000000000E+00  0.00000000000E+00  0.39999999673E+01  0.40000000000E+01  0.51109989000E-03 0. -1.
     -623   -1    0    0    0    0  0.00000000000E+00  0.00000000000E+00  0.12525980253E-10  0.17130000000E+03  0.17130000000E+03 0. -1.
       11    1    1    2    0    0  0.75232733740E-02  0.13974139228E-02 -0.10091856016E-01  0.12675140586E-01  0.51109989000E-03 0. -1.
     -623    1    1    2    0    0  0.12516480273E+00  0.94850425003E-01  0.71666231077E-01  0.17130008698E+03  0.17130000000E+03 0. -1.
      622    1    1    2    0    0 -0.13268807610E+00 -0.96247838926E-01  0.39384255923E+01  0.39872378808E+01  0.60000000000E+00 0. -1.
</event>
<event>
 5   0  0.1014700E+04  0.9118800E+02  0.7818608E-02  0.1180000E+00
       11   -1    0    0    0    0  0.00000000000E+00  0.00000000000E+00  0.39999999673E+01  0.40000000000E+01  0.51109989000E-03 0.  1.
     -623   -1    0    0    0    0  0.00000000000E+00  0.00000000000E+00  0.12525980253E-10  0.17130000000E+03  0.17130000000E+03 0.  1.
       11    1    1    2    0    0  0.11227009228E+00  0.17113045205E+00  0.42104743355E-01  0.20895759349E+00  0.51109989000E-03 0.  1.
     -623    1    1    2    0    0  0.30863264030E-01 -0.12386943804E+00  0.21785902673E+00  0.17130018610E+03  0.17130000000E+03 0.  1.
      622    1    1    2    0    0 -0.14313335631E+00 -0.47261014013E-01  0.37400361973E+01  0.37908563041E+01  0.60000000000E+00 0.  1.
</event>
<event>
 5   0  0.1014700E+04  0.9118800E+02  0.7818608E-02  0.1180000E+00
       11   -1    0    0    0    0  0.00000000000E+00  0.00000000000E+00  0.39999999673E+01  0.40000000000E+01  0.51109989000E-03 0.  1.
     -623   -1    0    0    0    0  0.00000000000E+00  0.00000000000E+00  0.12525980253E-10  0.17130000000E+03  0.17130000000E+03 0.  1.
       11    1    1    2    0    0  0.24806168247E-01  0.55069784243E-01  0.54716954188E-01  0.81499898272E-01  0.51109989000E-03 0.  1.
     -623    1    1    2    0    0 -0.24159324367E-01 -0.19021518818E+00  0.75475906790E-01  0.17130012394E+03  0.17130000000E+03 0.  1.
      622    1    1    2    0    0 -0.64684387966E-03  0.13514540394E+00  0.38698071064E+01  0.39183761610E+01  0.60000000000E+00 0.  1.
</event>
<event>
 5   0  0.1014700E+04  0.9118800E+02  0.7818608E-02  0.1180000E+00
       11   -1    0    0    0    0  0.00000000000E+00  0.00000000000E+00  0.39999999673E+01  0.40000000000E+01  0.51109989000E-03 0.  1.
     -623   -1    0    0    0    0  0.00000000000E+00  0.00000000000E+00  0.12525980253E-10  0.17130000000E+03  0.17130000000E+03 0. -1.
       11    1    1    2    0    0 -0.19138696499E-01 -0.48403856999E-02 -0.25251325331E-02  0.19908705423E-01  0.51109989000E-03 0.  1.
     -623    1    1    2    0    0  0.14908355097E-01  0.49863917665E-02  0.67935436222E-01  0.17130001419E+03  0.17130000000E+03 0. -1.
      622    1    1    2    0    0  0.42303414016E-02 -0.14600606656E-03  0.39345896637E+01  0.39800771021E+01  0.60000000000E+00 0.  1.
</event>
<event>
 5   0  0.1014700E+04  0.9118800E+02  0.7818608E-02  0.1180000E+00
       11   -1    0    0    0    0  0.00000000000E+00  0.00000000000E+00  0.39999999673E+01  0.40000000000E+01  0.51109989000E-03 0.  1.
     -623   -1    0    0    0    0  0.00000000000E+00  0.00000000000E+00  0.12525980253E-10  0.17130000000E+03  0.17130000000E+03 0. -1.
       11    1    1    2    0    0 -0.79742367590E-01 -0.81132874148E-01  0.40237087237E+00  0.41814347850E+00  0.51109989000E-03 0.  1.
     -623    1    1    2    0    0  0.22745969851E-01  0.47101103075E-01  0.67028829015E-01  0.17130002110E+03  0.17130000000E+03 0. -1.
      622    1    1    2    0    0  0.56996397738E-01  0.34031771072E-01  0.35306002660E+01  0.35818354218E+01  0.60000000000E+00 0.  1.
</event>
<event>
 5   0  0.1014700E+04  0.9118800E+02  0.7818608E-02  0.1180000E+00
       11   -1    0    0    0    0  0.00000000000E+00  0.00000000000E+00  0.39999999673E+01  0.40000000000E+01  0.51109989000E-03 0.  1.
     -623   -1    0    0    0    0  0.00000000000E+00  0.00000000000E+00  0.12525980253E-10  0.17130000000E+03  0.17130000000E+03 0.  1.
       11    1    1    2    0    0 -0.17620997132E-01 -0.33519239150E-01  0.19107886045E-01  0.42419470357E-01  0.51109989000E-03 0.  1.
     -623    1    1    2    0    0  0.31513969800E-01 -0.85544219869E-02  0.69326567602E-01  0.17130001714E+03  0.17130000000E+03 0.  1.
      622    1    1    2    0    0 -0.13892972668E-01  0.42073661137E-01  0.39115655137E+01  0.39575633887E+01  0.60000000000E+00 0.  1.
</event>
<event>
 5   0  0.1014700E+04  0.9118800E+02  0.7818608E-02  0.1180000E+00
       11   -1    0    0    0    0  0.00000000000E+00  0.00000000000E+00  0.39999999673E+01  0.40000000000E+01  0.51109989000E-03 0. -1.
     -623   -1    0    0    0    0  0.00000000000E+00  0.00000000000E+00  0.12525980253E-10  0.17130000000E+03  0.17130000000E+03 0.  1.
       11    1    1    2    0    0 -0.11090885168E-01  0.25286644662E-01  0.11113036944E-01  0.29768825039E-01  0.51109989000E-03 0. -1.
     -623    1    1    2    0    0 -0.12597598042E-01 -0.28484771532E-01  0.64342909300E-01  0.17130001492E+03  0.17130000000E+03 0.  1.
      622    1    1    2    0    0  0.23688483210E-01  0.31981268694E-02  0.39245440211E+01  0.39702162593E+01  0.60000000000E+00 0. -1.
</event>
<event>
 5   0  0.1014700E+04  0.9118800E+02  0.7818608E-02  0.1180000E+00
       11   -1    0    0    0    0  0.00000000000E+00  0.00000000000E+00  0.39999999673E+01  0.40000000000E+01  0.51109989000E-03 0. -1.
     -623   -1    0    0    0    0  0.00000000000E+00  0.00000000000E+00  0.12525980253E-10  0.17130000000E+03  0.17130000000E+03 0.  1.
       11    1    1    2    0    0  0.16087763710E+00 -0.14480358743E+00  0.72535301105E+00  0.75695901139E+00  0.51109989000E-03 0. -1.
     -623    1    1    2    0    0  0.10735691146E+00  0.40098388955E-01  0.10069653128E+00  0.17130006793E+03  0.17130000000E+03 0.  1.
      622    1    1    2    0    0 -0.26823454856E+00  0.10470519847E+00  0.31739504250E+01  0.32429730576E+01  0.60000000000E+00 0. -1.
</event>
<event>
 5   0  0.1014700E+04  0.9118800E+02  0.7818608E-02  0.1180000E+00
       11   -1    0    0    0    0  0.00000000000E+00  0.00000000000E+00  0.39999999673E+01  0.40000000000E+01  0.51109989000E-03 0. -1.
     -623   -1    0    0    0    0  0.00000000000E+00  0.00000000000E+00  0.12525980253E-10  0.17130000000E+03  0.17130000000E+03 0. -1.
       11    1    1    2    0    0  0.58452391028E-01  0.89975108555E-01  0.56434437582E-01  0.12123245911E+00  0.51109989000E-03 0. -1.
     -623    1    1    2    0    0 -0.81880984035E-01 -0.18276615500E+00  0.11283686309E+00  0.17130015423E+03  0.17130000000E+03 0. -1.
      622    1    1    2    0    0  0.23428593007E-01  0.92791046449E-01  0.38307286667E+01  0.38786133083E+01  0.60000000000E+00 0. -1.
</event>
<event>
 5   0  0.1014700E+04  0.9118800E+02  0.7818608E-02  0.1180000E+00
       11   -1    0    0    0    0  0.00000000000E+00  0.00000000000E+00  0.39999999673E+01  0.40000000000E+01  0.51109989000E-03 0. -1.
     -623   -1    0    0    0    0  0.00000000000E+00  0.00000000000E+00  0.12525980253E-10  0.17130000000E+03  0.17130000000E+03 0. -1.
       11    1    1    2    0    0 -0.14234626964E-04 -0.42371733307E-02  0.57663814768E-02  0.71739960198E-02  0.51109989000E-03 0. -1.
     -623    1    1    2    0    0  0.17094117841E-01 -0.84551452324E-02  0.46810739562E-01  0.17130000746E+03  0.17130000000E+03 0. -1.
      622    1    1    2    0    0 -0.17079883214E-01  0.12692318563E-01  0.39474228463E+01  0.39928185465E+01  0.60000000000E+00 0. -1.
</event>
<event>
 5   0  0.1014700E+04  0.9118800E+02  0.7818608E-02  0.1180000E+00
       11   -1    0    0    0    0  0.00000000000E+00  0.00000000000E+00  0.39999999673E+01  0.40000000000E+01  0.51109989000E-03 0.  1.
     -623   -1    0    0    0    0  0.00000000000E+00  0.00000000000E+00  0.12525980253E-10  0.17130000000E+03  0.17130000000E+03 0.  1.
       11    1    1    2    0    0  0.25999690375E+00  0.26247192156E-01  0.40683500012E+00  0.48353105754E+00  0.51109989000E-03 0.  1.
     -623    1    1    2    0    0 -0.20407497472E+00  0.50322515903E-01  0.12974018505E+00  0.17130017808E+03  0.17130000000E+03 0.  1.
      622    1    1    2    0    0 -0.55921929029E-01 -0.76569708059E-01  0.34634247822E+01  0.35162908589E+01  0.60000000000E+00 0.  1.
</event>
<event>
 5   0  0.1014700E+04  0.9118800E+02  0.7818608E-02  0.1180000E+00
       11   -1    0    0    0    0  0.00000000000E+00  0.00000000000E+00  0.39999999673E+01  0.40000000000E+01  0.51109989000E-03 0. -1.
     -623   -1    0    0    0    0  0.00000000000E+00  0.00000000000E+00  0.12525980253E-10  0.17130000000E+03  0.17130000000E+03 0. -1.
       11    1    1    2    0    0  0.97652614975E-01  0.13422221823E+00  0.99558729271E+00  0.10093294585E+01  0.51109989000E-03 0. -1.
     -623    1    1    2    0    0  0.83167025113E-02 -0.39477812172E-01  0.78020766882E-01  0.17130002252E+03  0.17130000000E+03 0. -1.
      622    1    1    2    0    0 -0.10596931749E+00 -0.94744406060E-01  0.29263919078E+01  0.29906480228E+01  0.60000000000E+00 0.  0.
</event>
<event>
 5   0  0.1014700E+04  0.9118800E+02  0.7818608E-02  0.1180000E+00
       11   -1    0    0    0    0  0.00000000000E+00  0.00000000000E+00  0.39999999673E+01  0.40000000000E+01  0.51109989000E-03 0. -1.
     -623   -1    0    0    0    0  0.00000000000E+00  0.00000000000E+00  0.12525980253E-10  0.17130000000E+03  0.17130000000E+03 0. -1.
       11    1    1    2    0    0 -0.58446456507E-01  0.25752756147E-01  0.20076081571E+00  0.21067595751E+00  0.51109989000E-03 0. -1.
     -623    1    1    2    0    0  0.18599459105E-01 -0.55220162520E-01  0.58066755665E-01  0.17130001975E+03  0.17130000000E+03 0. -1.
      622    1    1    2    0    0  0.39846997402E-01  0.29467406373E-01  0.37411723960E+01  0.37893042907E+01  0.60000000000E+00 0. -1.
</event>
<event>
 5   0  0.1014700E+04  0.9118800E+02  0.7818608E-02  0.1180000E+00
       11   -1    0    0    0    0  0.00000000000E+00  0.00000000000E+00  0.39999999673E+01  0.40000000000E+01  0.51109989000E-03 0. -1.
     -623   -1    0    0    0    0  0.00000000000E+00  0.00000000000E+00  0.12525980253E-10  0.17130000000E+03  0.17130000000E+03 0.  1.
       11    1    1    2    0    0 -0.45527714520E-02 -0.15603395745E-03  0.53890498526E-01  0.54085110050E-01  0.51109989000E-03 0. -1.
     -623    1    1    2    0    0  0.60681381940E-01  0.11955753842E+00  0.48370482935E-01  0.17130005930E+03  0.17130000000E+03 0.  1.
      622    1    1    2    0    0 -0.56128610488E-01 -0.11940150446E+00  0.38977389859E+01  0.39458555907E+01  0.60000000000E+00 0. -1.
</event>
<event>
 5   0  0.1014700E+04  0.9118800E+02  0.7818608E-02  0.1180000E+00
       11   -1    0    0    0    0  0.00000000000E+00  0.00000000000E+00  0.39999999673E+01  0.40000000000E+01  0.51109989000E-03 0.  1.
     -623   -1    0    0    0    0  0.00000000000E+00  0.00000000000E+00  0.12525980253E-10  0.17130000000E+03  0.17130000000E+03 0.  1.
       11    1    1    2    0    0  0.11307236044E+00 -0.17918827159E-01  0.71588067653E+00  0.72497713572E+00  0.51109989000E-03 0.  1.
     -623    1    1    2    0    0 -0.11887900698E-01  0.61167275008E-01  0.66432632715E-01  0.17130002421E+03  0.17130000000E+03 0.  1.
      622    1    1    2    0    0 -0.10118445974E+00 -0.43248447848E-01  0.32176866581E+01  0.32749986493E+01  0.60000000000E+00 0.  1.
</event>
<event>
 5   0  0.1014700E+04  0.9118800E+02  0.7818608E-02  0.1180000E+00
       11   -1    0    0    0    0  0.00000000000E+00  0.00000000000E+00  0.39999999673E+01  0.40000000000E+01  0.51109989000E-03 0. -1.
     -623   -1    0    0    0    0  0.00000000000E+00  0.00000000000E+00  0.12525980253E-10  0.17130000000E+03  0.17130000000E+03 0.  1.
       11    1    1    2    0    0  0.82119054657E-01  0.46223009588E-01  0.48727973844E+00  0.49630828168E+00  0.51109989000E-03 0. -1.
     -623    1    1    2    0    0 -0.44293512260E-01  0.69532605186E-01  0.62965829637E-01  0.17130003141E+03  0.17130000000E+03 0.  1.
      622    1    1    2    0    0 -0.37825542397E-01 -0.11575561477E+00  0.34497543993E+01  0.35036603074E+01  0.60000000000E+00 0. -1.
</event>
<event>
 5   0  0.1014700E+04  0.9118800E+02  0.7818608E-02  0.1180000E+00
       11   -1    0    0    0    0  0.00000000000E+00  0.00000000000E+00  0.39999999673E+01  0.40000000000E+01  0.51109989000E-03 0. -1.
     -623   -1    0    0    0    0  0.00000000000E+00  0.00000000000E+00  0.12525980253E-10  0.17130000000E+03  0.17130000000E+03 0. -1.
       11    1    1    2    0    0 -0.17868561554E-01  0.11752601514E-01  0.36206769183E-01  0.42054732101E-01  0.51109989000E-03 0. -1.
     -623    1    1    2    0    0  0.48966108603E-01  0.42298379824E-02  0.51761688847E-01  0.17130001487E+03  0.17130000000E+03 0. -1.
      622    1    1    2    0    0 -0.31097547049E-01 -0.15982439496E-01  0.39120315093E+01  0.39579303968E+01  0.60000000000E+00 0. -1.
</event>
<event>
 5   0  0.1014700E+04  0.9118800E+02  0.7818608E-02  0.1180000E+00
       11   -1    0    0    0    0  0.00000000000E+00  0.00000000000E+00  0.39999999673E+01  0.40000000000E+01  0.51109989000E-03 0.  1.
     -623   -1    0    0    0    0  0.00000000000E+00  0.00000000000E+00  0.12525980253E-10  0.17130000000E+03  0.17130000000E+03 0. -1.
       11    1    1    2    0    0  0.79902237442E-02 -0.61309513877E-01  0.25472581529E+00  0.26212249496E+00  0.51109989000E-03 0.  1.
     -623    1    1    2    0    0 -0.10233870511E-01  0.26629985895E-01  0.56041949090E-01  0.17130001154E+03  0.17130000000E+03 0. -1.
      622    1    1    2    0    0  0.22436467670E-02  0.34679527981E-01  0.36892322030E+01  0.37378659622E+01  0.60000000000E+00 0.  1.
</event>
<event>
 5   0  0.1014700E+04  0.9118800E+02  0.7818608E-02  0.1180000E+00
       11   -1    0    0    0    0  0.00000000000E+00  0.00000000000E+00  0.39999999673E+01  0.40000000000E+01  0.51109989000E-03 0.  1.
     -623   -1    0    0    0    0  0.00000000000E+00  0.00000000000E+00  0.12525980253E-10  0.17130000000E+03  0.17130000000E+03 0.  1.
       11    1    1    2    0    0  0.18248896105E-01  0.13597903568E-01  0.74926124515E-01  0.78307793649E-01  0.51109989000E-03 0.  1.
     -623    1    1    2    0    0 -0.19032619612E-01 -0.33348653743E-01  0.49614005965E-01  0.17130001149E+03  0.17130000000E+03 0.  1.
      622    1    1    2    0    0  0.78372350709E-03  0.19750750176E-01  0.38754598369E+01  0.39216807180E+01  0.60000000000E+00 0.  1.
</event>
<event>
 5   0  0.1014700E+04  0.9118800E+02  0.7818608E-02  0.1180000E+00
       11   -1    0    0    0    0  0.00000000000E+00  0.00000000000E+00  0.39999999673E+01  0.40000000000E+01  0.51109989000E-03 0. -1.
     -623   -1    0    0    0    0  0.00000000000E+00  0.00000000000E+00  0.12525980253E-10  0.17130000000E+03  0.17130000000E+03 0. -1.
       11    1    1    2    0    0  0.10864521032E-01  0.16189844082E-02  0.19064050307E-01  0.22008138564E-01  0.51109989000E-03 0. -1.
     -623    1    1    2    0    0 -0.91556764010E-03  0.55395605560E-01  0.48895377539E-01  0.17130001594E+03  0.17130000000E+03 0. -1.
      622    1    1    2    0    0 -0.99489533915E-02 -0.57014589968E-01  0.39320405395E+01  0.39779759237E+01  0.60000000000E+00 0. -1.
</event>
<event>
 5   0  0.1014700E+04  0.9118800E+02  0.7818608E-02  0.1180000E+00
       11   -1    0    0    0    0  0.00000000000E+00  0.00000000000E+00  0.39999999673E+01  0.40000000000E+01  0.51109989000E-03 0.  1.
     -623   -1    0    0    0    0  0.00000000000E+00  0.00000000000E+00  0.12525980253E-10  0.17130000000E+03  0.17130000000E+03 0. -1.
       11    1    1    2    0    0  0.77575617386E-01 -0.81282503623E-01  0.20821336342E+00  0.23659646603E+00  0.51109989000E-03 0.  1.
     -623    1    1    2    0    0 -0.39204663238E-01 -0.46771061135E-01  0.78955160031E-01  0.17130002907E+03  0.17130000000E+03 0. -1.
      622    1    1    2    0    0 -0.38370954148E-01  0.12805356476E+00  0.37128314439E+01  0.37633744667E+01  0.60000000000E+00 0.  1.
</event>
<event>
 5   0  0.1014700E+04  0.9118800E+02  0.7818608E-02  0.1180000E+00
       11   -1    0    0    0    0  0.00000000000E+00  0.00000000000E+00  0.39999999673E+01  0.40000000000E+01  0.51109989000E-03 0. -1.
     -623   -1    0    0    0    0  0.00000000000E+00  0.00000000000E+00  0.12525980253E-10  0.17130000000E+03  0.17130000000E+03 0. -1.
       11    1    1    2    0    0  0.82518534217E-02  0.58653149896E-01  0.16138916011E+00  0.17191569824E+00  0.51109989000E-03 0. -1.
     -623    1    1    2    0    0  0.69458097565E-02  0.16269383761E-02  0.58361144737E-01  0.17130001009E+03  0.17130000000E+03 0. -1.
      622    1    1    2    0    0 -0.15197663178E-01 -0.60280088272E-01  0.37802496625E+01  0.38280742115E+01  0.60000000000E+00 0. -1.
</event>
<event>
 5   0  0.1014700E+04  0.9118800E+02  0.7818608E-02  0.1180000E+00
       11   -1    0    0    0    0  0.00000000000E+00  0.00000000000E+00  0.39999999673E+01  0.40000000000E+01  0.51109989000E-03 0. -1.
     -623   -1    0    0    0    0  0.00000000000E+00  0.00000000000E+00  0.12525980253E-10  0.17130000000E+03  0.17130000000E+03 0.  1.
       11    1    1    2    0    0  0.33581516940E-01  0.85837237005E-02  0.82433041745E-01  0.89425198836E-01  0.51109989000E-03 0. -1.
     -623    1    1    2    0    0  0.33938271039E-01 -0.22598980140E-01  0.53924137876E-01  0.17130001334E+03  0.17130000000E+03 0.  1.
      622    1    1    2    0    0 -0.67519787979E-01  0.14015256440E-01  0.38636427877E+01  0.39105614610E+01  0.60000000000E+00 0. -1.
</event>
<event>
 5   0  0.1014700E+04  0.9118800E+02  0.7818608E-02  0.1180000E+00
       11   -1    0    0    0    0  0.00000000000E+00  0.00000000000E+00  0.39999999673E+01  0.40000000000E+01  0.51109989000E-03 0.  1.
     -623   -1    0    0    0    0  0.00000000000E+00  0.00000000000E+00  0.12525980253E-10  0.17130000000E+03  0.17130000000E+03 0.  1.
       11    1    1    2    0    0 -0.53498331310E-01  0.35396695943E-01  0.13842400739E+00  0.15256626292E+00  0.51109989000E-03 0.  1.
     -623    1    1    2    0    0  0.18087675421E-01 -0.71190431792E-01  0.61575312692E-01  0.17130002681E+03  0.17130000000E+03 0.  1.
      622    1    1    2    0    0  0.35410655888E-01  0.35793735849E-01  0.38000006473E+01  0.38474069222E+01  0.60000000000E+00 0.  1.
</event>
<event>
 5   0  0.1014700E+04  0.9118800E+02  0.7818608E-02  0.1180000E+00
       11   -1    0    0    0    0  0.00000000000E+00  0.00000000000E+00  0.39999999673E+01  0.40000000000E+01  0.51109989000E-03 0. -1.
     -623   -1    0    0    0    0  0.00000000000E+00  0.00000000000E+00  0.12525980253E-10  0.17130000000E+03  0.17130000000E+03 0. -1.
       11    1    1    2    0    0 -0.96088175636E-01  0.33363841688E-01  0.48220417755E+00  0.49281559787E+00  0.51109989000E-03 0. -1.
     -623    1    1    2    0    0  0.13637568683E+00 -0.15171740147E+00  0.64713977269E-01  0.17130013370E+03  0.17130000000E+03 0. -1.
      622    1    1    2    0    0 -0.40287511199E-01  0.11835355978E+00  0.34530818125E+01  0.35070507058E+01  0.60000000000E+00 0. -1.
</event>
<event>
 5   0  0.1014700E+04  0.9118800E+02  0.7818608E-02  0.1180000E+00
       11   -1    0    0    0    0  0.00000000000E+00  0.00000000000E+00  0.39999999673E+01  0.40000000000E+01  0.51109989000E-03 0.  1.
     -623   -1    0    0    0    0  0.00000000000E+00  0.00000000000E+00  0.12525980253E-10  0.17130000000E+03  0.17130000000E+03 0.  1.
       11    1    1    2    0    0 -0.43479737402E-02  0.27818808128E-02 -0.79415478695E-02  0.94854173426E-02  0.51109989000E-03 0.  1.
     -623    1    1    2    0    0 -0.28520480771E-02  0.24974439885E-01  0.62909516982E-01  0.17130001340E+03  0.17130000000E+03 0.  1.
      622    1    1    2    0    0  0.72000218173E-02 -0.27756320698E-01  0.39450319982E+01  0.39905011867E+01  0.60000000000E+00 0.  1.
</event>
<event>
 5   0  0.1014700E+04  0.9118800E+02  0.7818608E-02  0.1180000E+00
       11   -1    0    0    0    0  0.00000000000E+00  0.00000000000E+00  0.39999999673E+01  0.40000000000E+01  0.51109989000E-03 0. -1.
     -623   -1    0    0    0    0  0.00000000000E+00  0.00000000000E+00  0.12525980253E-10  0.17130000000E+03  0.17130000000E+03 0. -1.
       11    1    1    2    0    0  0.19699924620E-01  0.14809414327E-01 -0.52930009511E-02  0.25212752030E-01  0.51109989000E-03 0. -1.
     -623    1    1    2    0    0 -0.61861605576E-01 -0.29635074277E-01  0.76337398745E-01  0.17130003074E+03  0.17130000000E+03 0. -1.
      622    1    1    2    0    0  0.42161680956E-01  0.14825659950E-01  0.39289555696E+01  0.39747565051E+01  0.60000000000E+00 0. -1.
</event>
<event>
 5   0  0.1014700E+04  0.9118800E+02  0.7818608E-02  0.1180000E+00
       11   -1    0    0    0    0  0.00000000000E+00  0.00000000000E+00  0.39999999673E+01  0.40000000000E+01  0.51109989000E-03 0.  1.
     -623   -1    0    0    0    0  0.00000000000E+00  0.00000000000E+00  0.12525980253E-10  0.17130000000E+03  0.17130000000E+03 0. -1.
       11    1    1    2    0    0 -0.33859761250E-01  0.44009490287E-01  0.23157179127E-01  0.60165063240E-01  0.51109989000E-03 0.  1.
     -623    1    1    2    0    0 -0.10529197717E+00 -0.15183923120E+00  0.87067822202E-01  0.17130012178E+03  0.17130000000E+03 0. -1.
      622    1    1    2    0    0  0.13915173842E+00  0.10782974092E+00  0.38897749660E+01  0.39397131553E+01  0.60000000000E+00 0.  1.
</event>
<event>
 5   0  0.1014700E+04  0.9118800E+02  0.7818608E-02  0.1180000E+00
       11   -1    0    0    0    0  0.00000000000E+00  0.00000000000E+00  0.39999999673E+01  0.40000000000E+01  0.51109989000E-03 0. -1.
     -623   -1    0    0    0    0  0.00000000000E+00  0.00000000000E+00  0.12525980253E-10  0.17130000000E+03  0.17130000000E+03 0. -1.
       11    1    1    2    0    0  0.63540147135E-03  0.29061942689E-01  0.12677431483E+00  0.13006532347E+00  0.51109989000E-03 0. -1.
     -623    1    1    2    0    0 -0.52631105355E-01 -0.29464628972E-01  0.50458202868E-01  0.17130001805E+03  0.17130000000E+03 0. -1.
      622    1    1    2    0    0  0.51995703883E-01  0.40268628280E-03  0.38227674497E+01  0.38699166257E+01  0.60000000000E+00 0. -1.
</event>
<event>
 5   0  0.1014700E+04  0.9118800E+02  0.7818608E-02  0.1180000E+00
       11   -1    0    0    0    0  0.00000000000E+00  0.00000000000E+00  0.39999999673E+01  0.40000000000E+01  0.51109989000E-03 0.  1.
     -623   -1    0    0    0    0  0.00000000000E+00  0.00000000000E+00  0.12525980253E-10  0.17130000000E+03  0.17130000000E+03 0.  1.
       11    1    1    2    0    0 -0.37512363333E-01  0.12690730093E+00  0.78770145400E+00  0.79874056006E+00  0.51109989000E-03 0.  1.
     -623    1    1    2    0    0 -0.17937702757E-01 -0.10930609699E+00  0.68358171756E-01  0.17130004945E+03  0.17130000000E+03 0.  1.
      622    1    1    2    0    0  0.55450066090E-01 -0.17601203938E-01  0.31439403416E+01  0.32012099875E+01  0.60000000000E+00 0.  1.
</event>
<event>
 5   0  0.1014700E+04  0.9118800E+02  0.7818608E-02  0.1180000E+00
       11   -1    0    0    0    0  0.00000000000E+00  0.00000000000E+00  0.39999999673E+01  0.40000000000E+01  0.51109989000E-03 0.  1.
     -623   -1    0    0    0    0  0.00000000000E+00  0.00000000000E+00  0.12525980253E-10  0.17130000000E+03  0.17130000000E+03 0.  1.
       11    1    1    2    0    0 -0.65263850505E-01  0.16587605158E+00  0.94018086926E+00  0.95692975856E+00  0.51109989000E-03 0.  1.
     -623    1    1    2    0    0 -0.26602805898E-01 -0.34060787299E-01  0.80840670556E-01  0.17130002453E+03  0.17130000000E+03 0.  1.
      622    1    1    2    0    0  0.91866656403E-01 -0.13181526428E+00  0.29789784275E+01  0.30430457141E+01  0.60000000000E+00 0.  1.
</event>
<event>
 5   0  0.1014700E+04  0.9118800E+02  0.7818608E-02  0.1180000E+00
       11   -1    0    0    0    0  0.00000000000E+00  0.00000000000E+00  0.39999999673E+01  0.40000000000E+01  0.51109989000E-03 0. -1.
     -623   -1    0    0    0    0  0.00000000000E+00  0.00000000000E+00  0.12525980253E-10  0.17130000000E+03  0.17130000000E+03 0.  1.
       11    1    1    2    0    0  0.45548250459E-01 -0.87143872544E-01  0.10505831454E+01  0.10551748217E+01  0.51109989000E-03 0. -1.
     -623    1    1    2    0    0 -0.23155247640E-01 -0.69199941886E-01  0.70723894452E-01  0.17130003014E+03  0.17130000000E+03 0.  1.
      622    1    1    2    0    0 -0.22393002819E-01  0.15634381443E+00  0.28786929275E+01  0.29447950363E+01  0.60000000000E+00 0. -1.
</event>
<event>
 5   0  0.1014700E+04  0.9118800E+02  0.7818608E-02  0.1180000E+00
       11   -1    0    0    0    0  0.00000000000E+00  0.00000000000E+00  0.39999999673E+01  0.40000000000E+01  0.51109989000E-03 0.  1.
     -623   -1    0    0    0    0  0.00000000000E+00  0.00000000000E+00  0.12525980253E-10  0.17130000000E+03  0.17130000000E+03 0.  1.
       11    1    1    2    0    0 -0.14274801895E-01  0.25032351407E-01  0.27644940176E-01  0.39936105523E-01  0.51109989000E-03 0.  1.
     -623    1    1    2    0    0  0.44714757080E-02 -0.55012814582E-01  0.58154916628E-01  0.17130001876E+03  0.17130000000E+03 0.  1.
      622    1    1    2    0    0  0.98033261867E-02  0.29980463175E-01  0.39142001106E+01  0.39600451309E+01  0.60000000000E+00 0.  1.
</event>
<event>
 5   0  0.1014700E+04  0.9118800E+02  0.7818608E-02  0.1180000E+00
       11   -1    0    0    0    0  0.00000000000E+00  0.00000000000E+00  0.39999999673E+01  0.40000000000E+01  0.51109989000E-03 0.  1.
     -623   -1    0    0    0    0  0.00000000000E+00  0.00000000000E+00  0.12525980253E-10  0.17130000000E+03  0.17130000000E+03 0. -1.
       11    1    1    2    0    0  0.37314389138E-01 -0.77136231610E-01 -0.11578892371E-01  0.86467877477E-01  0.51109989000E-03 0.  1.
     -623    1    1    2    0    0 -0.24454367578E+00  0.17824579800E+00  0.15153352599E+00  0.17130033431E+03  0.17130000000E+03 0. -1.
      622    1    1    2    0    0  0.20722928664E+00 -0.10110956639E+00  0.38600453337E+01  0.39131978100E+01  0.60000000000E+00 0.  1.
</event>
<event>
 5   0  0.1014700E+04  0.9118800E+02  0.7818608E-02  0.1180000E+00
       11   -1    0    0    0    0  0.00000000000E+00  0.00000000000E+00  0.39999999673E+01  0.40000000000E+01  0.51109989000E-03 0. -1.
     -623   -1    0    0    0    0  0.00000000000E+00  0.00000000000E+00  0.12525980253E-10  0.17130000000E+03  0.17130000000E+03 0.  1.
       11    1    1    2    0    0  0.63062764354E-02 -0.16104404491E-01  0.19765995964E-01  0.26269312601E-01  0.51109989000E-03 0. -1.
     -623    1    1    2    0    0 -0.26171829156E-01 -0.38797025655E-01  0.52510457850E-01  0.17130001444E+03  0.17130000000E+03 0.  1.
      622    1    1    2    0    0  0.19865552721E-01  0.54901430146E-01  0.39277235135E+01  0.39737162463E+01  0.60000000000E+00 0. -1.
</event>
<event>
 5   0  0.1014700E+04  0.9118800E+02  0.7818608E-02  0.1180000E+00
       11   -1    0    0    0    0  0.00000000000E+00  0.00000000000E+00  0.39999999673E+01  0.40000000000E+01  0.51109989000E-03 0.  1.
     -623   -1    0    0    0    0  0.00000000000E+00  0.00000000000E+00  0.12525980253E-10  0.17130000000E+03  0.17130000000E+03 0.  1.
       11    1    1    2    0    0 -0.15198302760E-01 -0.26587476371E-01  0.45876112066E-02  0.30970787950E-01  0.51109989000E-03 0.  1.
     -623    1    1    2    0    0  0.11884168815E-01  0.72214439834E-02  0.72061484740E-01  0.17130001572E+03  0.17130000000E+03 0.  1.
      622    1    1    2    0    0  0.33141339449E-02  0.19366032388E-01  0.39233508714E+01  0.39690134904E+01  0.60000000000E+00 0.  1.
</event>
<event>
 5   0  0.1014700E+04  0.9118800E+02  0.7818608E-02  0.1180000E+00
       11   -1    0    0    0    0  0.00000000000E+00  0.00000000000E+00  0.39999999673E+01  0.40000000000E+01  0.51109989000E-03 0.  1.
     -623   -1    0    0    0    0  0.00000000000E+00  0.00000000000E+00  0.12525980253E-10  0.17130000000E+03  0.17130000000E+03 0. -1.
       11    1    1    2    0    0 -0.31776043957E-01  0.81935962625E-01  0.19507023209E+00  0.21395297524E+00  0.51109989000E-03 0.  1.
     -623    1    1    2    0    0  0.54425454979E-01 -0.41343331452E-01  0.67044139862E-01  0.17130002676E+03  0.17130000000E+03 0. -1.
      622    1    1    2    0    0 -0.22649411022E-01 -0.40592631173E-01  0.37378855954E+01  0.37860202696E+01  0.60000000000E+00 0.  1.
</event>
<event>
 5   0  0.1014700E+04  0.9118800E+02  0.7818608E-02  0.1180000E+00
       11   -1    0    0    0    0  0.00000000000E+00  0.00000000000E+00  0.39999999673E+01  0.40000000000E+01  0.51109989000E-03 0. -1.
     -623   -1    0    0    0    0  0.00000000000E+00  0.00000000000E+00  0.12525980253E-10  0.17130000000E+03  0.17130000000E+03 0.  1.
       11    1    1    2    0    0 -0.40389455056E-01 -0.51622034890E-01  0.96669452815E+00  0.96891419360E+00  0.51109989000E-03 0. -1.
     -623    1    1    2    0    0  0.10506764925E+00 -0.29833490994E-01  0.64066616693E-01  0.17130004680E+03  0.17130000000E+03 0.  1.
      622    1    1    2    0    0 -0.64678194194E-01  0.81455525885E-01  0.29692388225E+01  0.30310390061E+01  0.60000000000E+00 0. -1.
</event>
<event>
 5   0  0.1014700E+04  0.9118800E+02  0.7818608E-02  0.1180000E+00
       11   -1    0    0    0    0  0.00000000000E+00  0.00000000000E+00  0.39999999673E+01  0.40000000000E+01  0.51109989000E-03 0. -1.
     -623   -1    0    0    0    0  0.00000000000E+00  0.00000000000E+00  0.12525980253E-10  0.17130000000E+03  0.17130000000E+03 0.  1.
       11    1    1    2    0    0  0.32293164088E-01  0.54812605240E-01  0.11708264888E+00  0.13325118398E+00  0.51109989000E-03 0. -1.
     -623    1    1    2    0    0 -0.39161646257E-01 -0.24257799562E-01  0.63149299927E-01  0.17130001783E+03  0.17130000000E+03 0.  1.
      622    1    1    2    0    0  0.68684821695E-02 -0.30554805678E-01  0.38197680186E+01  0.38667309821E+01  0.60000000000E+00 0. -1.
</event>
<event>
 5   0  0.1014700E+04  0.9118800E+02  0.7818608E-02  0.1180000E+00
       11   -1    0    0    0    0  0.00000000000E+00  0.00000000000E+00  0.39999999673E+01  0.40000000000E+01  0.51109989000E-03 0. -1.
     -623   -1    0    0    0    0  0.00000000000E+00  0.00000000000E+00  0.12525980253E-10  0.17130000000E+03  0.17130000000E+03 0.  1.
       11    1    1    2    0    0 -0.12985853288E-01  0.84975542417E-01  0.62046026681E+00  0.62638700427E+00  0.51109989000E-03 0. -1.
     -623    1    1    2    0    0  0.85214529429E-01 -0.84109776265E-01  0.60550038540E-01  0.17130005255E+03  0.17130000000E+03 0.  1.
      622    1    1    2    0    0 -0.72228676141E-01 -0.86576615194E-03  0.33189896620E+01  0.33735604497E+01  0.60000000000E+00 0. -1.
</event>
<event>
 5   0  0.1014700E+04  0.9118800E+02  0.7818608E-02  0.1180000E+00
       11   -1    0    0    0    0  0.00000000000E+00  0.00000000000E+00  0.39999999673E+01  0.40000000000E+01  0.51109989000E-03 0.  1.
     -623   -1    0    0    0    0  0.00000000000E+00  0.00000000000E+00  0.12525980253E-10  0.17130000000E+03  0.17130000000E+03 0. -1.
       11    1    1    2    0    0 -0.16330326430E-01 -0.93289073616E-02 -0.98184004069E-04  0.18814327964E-01  0.51109989000E-03 0.  1.
     -623    1    1    2    0    0  0.30226054080E-01 -0.12268828677E+00  0.66684454228E-01  0.17130005958E+03  0.17130000000E+03 0. -1.
      622    1    1    2    0    0 -0.13895727651E-01  0.13201719413E+00  0.39334136971E+01  0.39811260899E+01  0.60000000000E+00 0.  1.
</event>
<event>
 5   0  0.1014700E+04  0.9118800E+02  0.7818608E-02  0.1180000E+00
       11   -1    0    0    0    0  0.00000000000E+00  0.00000000000E+00  0.39999999673E+01  0.40000000000E+01  0.51109989000E-03 0.  1.
     -623   -1    0    0    0    0  0.00000000000E+00  0.00000000000E+00  0.12525980253E-10  0.17130000000E+03  0.17130000000E+03 0. -1.
       11    1    1    2    0    0 -0.40954370396E-01  0.77132763615E-01  0.42909821128E+00  0.43789526125E+00  0.51109989000E-03 0.  1.
     -623    1    1    2    0    0 -0.31738854039E-01 -0.14967889623E-01  0.61010249939E-01  0.17130001446E+03  0.17130000000E+03 0. -1.
      622    1    1    2    0    0  0.72693224435E-01 -0.62164873993E-01  0.35098915061E+01  0.35620902798E+01  0.60000000000E+00 0.  1.
</event>
<event>
 5   0  0.1014700E+04  0.9118800E+02  0.7818608E-02  0.1180000E+00
       11   -1    0    0    0    0  0.00000000000E+00  0.00000000000E+00  0.39999999673E+01  0.40000000000E+01  0.51109989000E-03 0. -1.
     -623   -1    0    0    0    0  0.00000000000E+00  0.00000000000E+00  0.12525980253E-10  0.17130000000E+03  0.17130000000E+03 0. -1.
       11    1    1    2    0    0 -0.32431454773E-01  0.20500883909E-01  0.50863947298E-01  0.63714110349E-01  0.51109989000E-03 0. -1.
     -623    1    1    2    0    0 -0.24880168854E-01 -0.67510627267E-01  0.59579291529E-01  0.17130002547E+03  0.17130000000E+03 0. -1.
      622    1    1    2    0    0  0.57311623627E-01  0.47009743358E-01  0.38895567285E+01  0.39362604186E+01  0.60000000000E+00 0. -1.
</event>
<event>
 5   0  0.1014700E+04  0.9118800E+02  0.7818608E-02  0.1180000E+00
       11   -1    0    0    0    0  0.00000000000E+00  0.00000000000E+00  0.39999999673E+01  0.40000000000E+01  0.51109989000E-03 0.  1.
     -623   -1    0    0    0    0  0.00000000000E+00  0.00000000000E+00  0.12525980253E-10  0.17130000000E+03  0.17130000000E+03 0. -1.
       11    1    1    2    0    0 -0.84437671822E-02  0.35448072688E-01  0.10040907485E-01  0.37801377062E-01  0.51109989000E-03 0.  1.
     -623    1    1    2    0    0 -0.13306411692E-01 -0.16313206747E-01  0.73577663165E-01  0.17130001710E+03  0.17130000000E+03 0. -1.
      622    1    1    2    0    0  0.21750178874E-01 -0.19134865942E-01  0.39163813967E+01  0.39621815276E+01  0.60000000000E+00 0.  1.
</event>
<event>
 5   0  0.1014700E+04  0.9118800E+02  0.7818608E-02  0.1180000E+00
       11   -1    0    0    0    0  0.00000000000E+00  0.00000000000E+00  0.39999999673E+01  0.40000000000E+01  0.51109989000E-03 0.  1.
     -623   -1    0    0    0    0  0.00000000000E+00  0.00000000000E+00  0.12525980253E-10  0.17130000000E+03  0.17130000000E+03 0. -1.
       11    1    1    2    0    0 -0.53355359203E-01  0.36840241013E-01  0.15654783089E+00  0.16944462899E+00  0.51109989000E-03 0.  1.
     -623    1    1    2    0    0  0.50380477353E-02 -0.62351353845E-01  0.60596144120E-01  0.17130002214E+03  0.17130000000E+03 0. -1.
      622    1    1    2    0    0  0.48317311467E-01  0.25511112831E-01  0.37828559924E+01  0.38305332316E+01  0.60000000000E+00 0.  1.
</event>
<event>
 5   0  0.1014700E+04  0.9118800E+02  0.7818608E-02  0.1180000E+00
       11   -1    0    0    0    0  0.00000000000E+00  0.00000000000E+00  0.39999999673E+01  0.40000000000E+01  0.51109989000E-03 0.  1.
     -623   -1    0    0    0    0  0.00000000000E+00  0.00000000000E+00  0.12525980253E-10  0.17130000000E+03  0.17130000000E+03 0. -1.
       11    1    1    2    0    0 -0.69284914683E-02  0.52017964298E-01  0.15057096093E+00  0.15945453302E+00  0.51109989000E-03 0.  1.
     -623    1    1    2    0    0 -0.37620412732E-01 -0.64242084430E-01  0.56348463588E-01  0.17130002545E+03  0.17130000000E+03 0. -1.
      622    1    1    2    0    0  0.44548904200E-01  0.12224120132E-01  0.37930805428E+01  0.38405200219E+01  0.60000000000E+00 0.  1.
</event>
<event>
 5   0  0.1014700E+04  0.9118800E+02  0.7818608E-02  0.1180000E+00
       11   -1    0    0    0    0  0.00000000000E+00  0.00000000000E+00  0.39999999673E+01  0.40000000000E+01  0.51109989000E-03 0. -1.
     -623   -1    0    0    0    0  0.00000000000E+00  0.00000000000E+00  0.12525980253E-10  0.17130000000E+03  0.17130000000E+03 0.  1.
       11    1    1    2    0    0  0.31833086980E-01  0.24826437398E+00  0.10852676532E+01  0.11137570135E+01  0.51109989000E-03 0. -1.
     -623    1    1    2    0    0  0.25235970563E-01 -0.11150828735E-01  0.10213026329E+00  0.17130003267E+03  0.17130000000E+03 0.  1.
      622    1    1    2    0    0 -0.57069057543E-01 -0.23711354524E+00  0.28126020509E+01  0.28862103193E+01  0.60000000000E+00 0. -1.
</event>
<event>
 5   0  0.1014700E+04  0.9118800E+02  0.7818608E-02  0.1180000E+00
       11   -1    0    0    0    0  0.00000000000E+00  0.00000000000E+00  0.39999999673E+01  0.40000000000E+01  0.51109989000E-03 0.  1.
     -623   -1    0    0    0    0  0.00000000000E+00  0.00000000000E+00  0.12525980253E-10  0.17130000000E+03  0.17130000000E+03 0. -1.
       11    1    1    2    0    0  0.63471353694E-01 -0.32591308195E-01  0.37634818033E+00  0.38305224209E+00  0.51109989000E-03 0.  1.
     -623    1    1    2    0    0 -0.22682671160E-01  0.47214743484E-01  0.57097882814E-01  0.17130001752E+03  0.17130000000E+03 0. -1.
      622    1    1    2    0    0 -0.40788682534E-01 -0.14623435289E-01  0.35665539042E+01  0.36169302334E+01  0.60000000000E+00 0.  1.
</event>
<event>
 5   0  0.1014700E+04  0.9118800E+02  0.7818608E-02  0.1180000E+00
       11   -1    0    0    0    0  0.00000000000E+00  0.00000000000E+00  0.39999999673E+01  0.40000000000E+01  0.51109989000E-03 0.  1.
     -623   -1    0    0    0    0  0.00000000000E+00  0.00000000000E+00  0.12525980253E-10  0.17130000000E+03  0.17130000000E+03 0.  1.
       11    1    1    2    0    0  0.74521743445E-01  0.49447187000E-01  0.45286651848E-01  0.10024797558E+00  0.51109989000E-03 0.  1.
     -623    1    1    2    0    0 -0.12087782719E+00  0.95086114167E-01  0.10448733728E+00  0.17130010091E+03  0.17130000000E+03 0.  1.
      622    1    1    2    0    0  0.46356083741E-01 -0.14453330117E+00  0.38502259782E+01  0.38996511184E+01  0.60000000000E+00 0.  1.
</event>
<event>
 5   0  0.1014700E+04  0.9118800E+02  0.7818608E-02  0.1180000E+00
       11   -1    0    0    0    0  0.00000000000E+00  0.00000000000E+00  0.39999999673E+01  0.40000000000E+01  0.51109989000E-03 0.  1.
     -623   -1    0    0    0    0  0.00000000000E+00  0.00000000000E+00  0.12525980253E-10  0.17130000000E+03  0.17130000000E+03 0.  1.
       11    1    1    2    0    0 -0.24617450550E-01 -0.25710369827E-02 -0.17091460874E-01  0.30083356872E-01  0.51109989000E-03 0.  1.
     -623    1    1    2    0    0  0.57522612369E-01 -0.36820948420E-01  0.93152785605E-01  0.17130003894E+03  0.17130000000E+03 0.  1.
      622    1    1    2    0    0 -0.32905161819E-01  0.39391985403E-01  0.39239386426E+01  0.39698776995E+01  0.60000000000E+00 0.  1.
</event>
<event>
 5   0  0.1014700E+04  0.9118800E+02  0.7818608E-02  0.1180000E+00
       11   -1    0    0    0    0  0.00000000000E+00  0.00000000000E+00  0.39999999673E+01  0.40000000000E+01  0.51109989000E-03 0.  1.
     -623   -1    0    0    0    0  0.00000000000E+00  0.00000000000E+00  0.12525980253E-10  0.17130000000E+03  0.17130000000E+03 0. -1.
       11    1    1    2    0    0 -0.24716129707E-01 -0.12451644520E-02  0.18077294126E-01  0.30651056844E-01  0.51109989000E-03 0.  1.
     -623    1    1    2    0    0  0.47688376679E-01 -0.18451116037E-03  0.58267502889E-01  0.17130001655E+03  0.17130000000E+03 0. -1.
      622    1    1    2    0    0 -0.22972246972E-01  0.14296756123E-02  0.39236551703E+01  0.39693323952E+01  0.60000000000E+00 0.  1.
</event>
<event>
 5   0  0.1014700E+04  0.9118800E+02  0.7818608E-02  0.1180000E+00
       11   -1    0    0    0    0  0.00000000000E+00  0.00000000000E+00  0.39999999673E+01  0.40000000000E+01  0.51109989000E-03 0.  1.
     -623   -1    0    0    0    0  0.00000000000E+00  0.00000000000E+00  0.12525980253E-10  0.17130000000E+03  0.17130000000E+03 0. -1.
       11    1    1    2    0    0 -0.11173148023E-01 -0.25011850425E-01  0.44723210082E-01  0.52448628578E-01  0.51109989000E-03 0.  1.
     -623    1    1    2    0    0  0.79359542585E-01 -0.17663624727E-01  0.54447280065E-01  0.17130002795E+03  0.17130000000E+03 0. -1.
      622    1    1    2    0    0 -0.68186394562E-01  0.42675475152E-01  0.39008294772E+01  0.39475234250E+01  0.60000000000E+00 0.  1.
</event>
<event>
 5   0  0.1014700E+04  0.9118800E+02  0.7818608E-02  0.1180000E+00
       11   -1    0    0    0    0  0.00000000000E+00  0.00000000000E+00  0.39999999673E+01  0.40000000000E+01  0.51109989000E-03 0.  1.
     -623   -1    0    0    0    0  0.00000000000E+00  0.00000000000E+00  0.12525980253E-10  0.17130000000E+03  0.17130000000E+03 0.  1.
       11    1    1    2    0    0 -0.14829483282E+00 -0.16327574329E+00  0.73947431550E+00  0.77166887348E+00  0.51109989000E-03 0.  1.
     -623    1    1    2    0    0  0.29407330148E-01 -0.16520504976E-01  0.95803465352E-01  0.17130003011E+03  0.17130000000E+03 0.  1.
      622    1    1    2    0    0  0.11888750267E+00  0.17979624827E+00  0.31647221865E+01  0.32283010155E+01  0.60000000000E+00 0.  1.
</event>
<event>
 5   0  0.1014700E+04  0.9118800E+02  0.7818608E-02  0.1180000E+00
       11   -1    0    0    0    0  0.00000000000E+00  0.00000000000E+00  0.39999999673E+01  0.40000000000E+01  0.51109989000E-03 0. -1.
     -623   -1    0    0    0    0  0.00000000000E+00  0.00000000000E+00  0.12525980253E-10  0.17130000000E+03  0.17130000000E+03 0. -1.
       11    1    1    2    0    0  0.47888418190E-01  0.33185817143E-01  0.64008453772E-01  0.86556007496E-01  0.51109989000E-03 0. -1.
     -623    1    1    2    0    0 -0.98971164338E-01  0.46577127794E-02  0.69382139173E-01  0.17130004271E+03  0.17130000000E+03 0. -1.
      622    1    1    2    0    0  0.51082746148E-01 -0.37843529922E-01  0.38666093744E+01  0.39134012871E+01  0.60000000000E+00 0. -1.
</event>
<event>
 5   0  0.1014700E+04  0.9118800E+02  0.7818608E-02  0.1180000E+00
       11   -1    0    0    0    0  0.00000000000E+00  0.00000000000E+00  0.39999999673E+01  0.40000000000E+01  0.51109989000E-03 0. -1.
     -623   -1    0    0    0    0  0.00000000000E+00  0.00000000000E+00  0.12525980253E-10  0.17130000000E+03  0.17130000000E+03 0. -1.
       11    1    1    2    0    0  0.53020641002E-01  0.13830370153E+00  0.95801349522E+00  0.96939631755E+00  0.51109989000E-03 0. -1.
     -623    1    1    2    0    0  0.16891924088E+00  0.17328896450E-01  0.83871312389E-01  0.17130010469E+03  0.17130000000E+03 0. -1.
      622    1    1    2    0    0 -0.22193988188E+00 -0.15563259798E+00  0.29581151597E+01  0.30304989878E+01  0.60000000000E+00 0.  0.
</event>
<event>
 5   0  0.1014700E+04  0.9118800E+02  0.7818608E-02  0.1180000E+00
       11   -1    0    0    0    0  0.00000000000E+00  0.00000000000E+00  0.39999999673E+01  0.40000000000E+01  0.51109989000E-03 0.  1.
     -623   -1    0    0    0    0  0.00000000000E+00  0.00000000000E+00  0.12525980253E-10  0.17130000000E+03  0.17130000000E+03 0. -1.
       11    1    1    2    0    0  0.53387243612E-01 -0.93608469859E-01  0.14598598479E+00  0.18145223169E+00  0.51109989000E-03 0.  1.
     -623    1    1    2    0    0  0.50519432268E-01  0.26845324613E-01  0.84953183401E-01  0.17130003062E+03  0.17130000000E+03 0. -1.
      622    1    1    2    0    0 -0.10390667588E+00  0.66763145246E-01  0.37690607992E+01  0.38185171497E+01  0.60000000000E+00 0.  1.
</event>
<event>
 5   0  0.1014700E+04  0.9118800E+02  0.7818608E-02  0.1180000E+00
       11   -1    0    0    0    0  0.00000000000E+00  0.00000000000E+00  0.39999999673E+01  0.40000000000E+01  0.51109989000E-03 0. -1.
     -623   -1    0    0    0    0  0.00000000000E+00  0.00000000000E+00  0.12525980253E-10  0.17130000000E+03  0.17130000000E+03 0.  1.
       11    1    1    2    0    0 -0.26742719448E-01  0.59209852386E-01 -0.15123254275E-01  0.66707973332E-01  0.51109989000E-03 0. -1.
     -623    1    1    2    0    0 -0.96497741582E-01 -0.46936923286E-01  0.12992112104E+00  0.17130008288E+03  0.17130000000E+03 0.  1.
      622    1    1    2    0    0  0.12324046103E+00 -0.12272929100E-01  0.38852021006E+01  0.39332091476E+01  0.60000000000E+00 0. -1.
</event>
<event>
 5   0  0.1014700E+04  0.9118800E+02  0.7818608E-02  0.1180000E+00
       11   -1    0    0    0    0  0.00000000000E+00  0.00000000000E+00  0.39999999673E+01  0.40000000000E+01  0.51109989000E-03 0. -1.
     -623   -1    0    0    0    0  0.00000000000E+00  0.00000000000E+00  0.12525980253E-10  0.17130000000E+03  0.17130000000E+03 0.  1.
       11    1    1    2    0    0  0.21115223142E-01  0.13886686242E-02 -0.19063324962E-01  0.28486007628E-01  0.51109989000E-03 0. -1.
     -623    1    1    2    0    0  0.16736224484E-01  0.21342788827E-01  0.93409895559E-01  0.17130002762E+03  0.17130000000E+03 0.  1.
      622    1    1    2    0    0 -0.37851447625E-01 -0.22731457452E-01  0.39256533968E+01  0.39714863770E+01  0.60000000000E+00 0. -1.
</event>
<event>
 5   0  0.1014700E+04  0.9118800E+02  0.7818608E-02  0.1180000E+00
       11   -1    0    0    0    0  0.00000000000E+00  0.00000000000E+00  0.39999999673E+01  0.40000000000E+01  0.51109989000E-03 0.  1.
     -623   -1    0    0    0    0  0.00000000000E+00  0.00000000000E+00  0.12525980253E-10  0.17130000000E+03  0.17130000000E+03 0.  1.
       11    1    1    2    0    0 -0.22546936970E-01  0.30552703713E-01  0.10960585879E-01  0.39525026715E-01  0.51109989000E-03 0.  1.
     -623    1    1    2    0    0 -0.98854504717E-01 -0.10467802175E+00  0.76941094766E-01  0.17130007779E+03  0.17130000000E+03 0.  1.
      622    1    1    2    0    0  0.12140144169E+00  0.74125318035E-01  0.39120982867E+01  0.39603971869E+01  0.60000000000E+00 0.  1.
</event>
<event>
 5   0  0.1014700E+04  0.9118800E+02  0.7818608E-02  0.1180000E+00
       11   -1    0    0    0    0  0.00000000000E+00  0.00000000000E+00  0.39999999673E+01  0.40000000000E+01  0.51109989000E-03 0. -1.
     -623   -1    0    0    0    0  0.00000000000E+00  0.00000000000E+00  0.12525980253E-10  0.17130000000E+03  0.17130000000E+03 0.  1.
       11    1    1    2    0    0  0.75129459767E-01 -0.61470375688E-01  0.50891663190E+00  0.51809211754E+00  0.51109989000E-03 0. -1.
     -623    1    1    2    0    0 -0.25202852390E-01 -0.20826895178E+00  0.72395073313E-01  0.17130014376E+03  0.17130000000E+03 0.  1.
      622    1    1    2    0    0 -0.49926607378E-01  0.26973932747E+00  0.34186882621E+01  0.34817641225E+01  0.60000000000E+00 0.  1.
</event>
<event>
 5   0  0.1014700E+04  0.9118800E+02  0.7818608E-02  0.1180000E+00
       11   -1    0    0    0    0  0.00000000000E+00  0.00000000000E+00  0.39999999673E+01  0.40000000000E+01  0.51109989000E-03 0. -1.
     -623   -1    0    0    0    0  0.00000000000E+00  0.00000000000E+00  0.12525980253E-10  0.17130000000E+03  0.17130000000E+03 0.  1.
       11    1    1    2    0    0 -0.40740464294E-01 -0.47549038771E-02  0.10163740389E+00  0.10960300012E+00  0.51109989000E-03 0. -1.
     -623    1    1    2    0    0  0.74444208993E-01 -0.29623631612E-01  0.54841145099E-01  0.17130002752E+03  0.17130000000E+03 0.  1.
      622    1    1    2    0    0 -0.33703744699E-01  0.34378535489E-01  0.38435214184E+01  0.38903694837E+01  0.60000000000E+00 0. -1.
</event>
<event>
 5   0  0.1014700E+04  0.9118800E+02  0.7818608E-02  0.1180000E+00
       11   -1    0    0    0    0  0.00000000000E+00  0.00000000000E+00  0.39999999673E+01  0.40000000000E+01  0.51109989000E-03 0.  1.
     -623   -1    0    0    0    0  0.00000000000E+00  0.00000000000E+00  0.12525980253E-10  0.17130000000E+03  0.17130000000E+03 0. -1.
       11    1    1    2    0    0  0.32796412592E-01  0.39255560778E-02  0.12023064709E-02  0.33056337265E-01  0.51109989000E-03 0.  1.
     -623    1    1    2    0    0 -0.29566531412E-01 -0.58021016101E-01  0.77896418691E-01  0.17130003009E+03  0.17130000000E+03 0. -1.
      622    1    1    2    0    0 -0.32298811801E-02  0.54095460023E-01  0.39209012422E+01  0.39669135738E+01  0.60000000000E+00 0.  1.
</event>
<event>
 5   0  0.1014700E+04  0.9118800E+02  0.7818608E-02  0.1180000E+00
       11   -1    0    0    0    0  0.00000000000E+00  0.00000000000E+00  0.39999999673E+01  0.40000000000E+01  0.51109989000E-03 0.  1.
     -623   -1    0    0    0    0  0.00000000000E+00  0.00000000000E+00  0.12525980253E-10  0.17130000000E+03  0.17130000000E+03 0. -1.
       11    1    1    2    0    0  0.27623373323E-01 -0.21745448815E-01  0.12213860025E+00  0.12709844291E+00  0.51109989000E-03 0.  1.
     -623    1    1    2    0    0 -0.77336955366E-01 -0.66019565131E-01  0.53087537245E-01  0.17130003841E+03  0.17130000000E+03 0. -1.
      622    1    1    2    0    0  0.49713582043E-01  0.87765013946E-01  0.38247738299E+01  0.38728631512E+01  0.60000000000E+00 0.  1.
</event>
<event>
 5   0  0.1014700E+04  0.9118800E+02  0.7818608E-02  0.1180000E+00
       11   -1    0    0    0    0  0.00000000000E+00  0.00000000000E+00  0.39999999673E+01  0.40000000000E+01  0.51109989000E-03 0.  1.
     -623   -1    0    0    0    0  0.00000000000E+00  0.00000000000E+00  0.12525980253E-10  0.17130000000E+03  0.17130000000E+03 0. -1.
       11    1    1    2    0    0 -0.29029212594E-01 -0.37281812903E-01  0.43478467203E+00  0.43734494511E+00  0.51109989000E-03 0.  1.
     -623    1    1    2    0    0  0.33392992187E-01  0.31326383203E-01  0.53470220955E-01  0.17130001446E+03  0.17130000000E+03 0. -1.
      622    1    1    2    0    0 -0.43637795925E-02  0.59554296996E-02  0.35117450744E+01  0.35626405905E+01  0.60000000000E+00 0.  1.
</event>
<event>
 5   0  0.1014700E+04  0.9118800E+02  0.7818608E-02  0.1180000E+00
       11   -1    0    0    0    0  0.00000000000E+00  0.00000000000E+00  0.39999999673E+01  0.40000000000E+01  0.51109989000E-03 0.  1.
     -623   -1    0    0    0    0  0.00000000000E+00  0.00000000000E+00  0.12525980253E-10  0.17130000000E+03  0.17130000000E+03 0. -1.
       11    1    1    2    0    0  0.14292159275E-01  0.81099984075E-02  0.13973218425E+00  0.14069606401E+00  0.51109989000E-03 0.  1.
     -623    1    1    2    0    0  0.18746707596E+00 -0.17017994184E+00  0.56882935390E-01  0.17130019656E+03  0.17130000000E+03 0. -1.
      622    1    1    2    0    0 -0.20175923523E+00  0.16206994344E+00  0.38033848477E+01  0.38591073781E+01  0.60000000000E+00 0.  1.
</event>
<event>
 5   0  0.1014700E+04  0.9118800E+02  0.7818608E-02  0.1180000E+00
       11   -1    0    0    0    0  0.00000000000E+00  0.00000000000E+00  0.39999999673E+01  0.40000000000E+01  0.51109989000E-03 0.  1.
     -623   -1    0    0    0    0  0.00000000000E+00  0.00000000000E+00  0.12525980253E-10  0.17130000000E+03  0.17130000000E+03 0. -1.
       11    1    1    2    0    0 -0.53930950787E-01 -0.67947381909E-01  0.35071020859E+00  0.36128009327E+00  0.51109989000E-03 0.  1.
     -623    1    1    2    0    0  0.50192417955E-01  0.72608533499E-01  0.60417537782E-01  0.17130003340E+03  0.17130000000E+03 0. -1.
      622    1    1    2    0    0  0.37385328322E-02 -0.46611515901E-02  0.35888722210E+01  0.36386865105E+01  0.60000000000E+00 0.  1.
</event>
<event>
 5   0  0.1014700E+04  0.9118800E+02  0.7818608E-02  0.1180000E+00
       11   -1    0    0    0    0  0.00000000000E+00  0.00000000000E+00  0.39999999673E+01  0.40000000000E+01  0.51109989000E-03 0.  1.
     -623   -1    0    0    0    0  0.00000000000E+00  0.00000000000E+00  0.12525980253E-10  0.17130000000E+03  0.17130000000E+03 0.  1.
       11    1    1    2    0    0  0.65290167340E-01 -0.14560337719E+00  0.55012992948E+00  0.57280568253E+00  0.51109989000E-03 0.  1.
     -623    1    1    2    0    0 -0.64090709828E-01  0.12253898162E-01  0.78272551727E-01  0.17130003031E+03  0.17130000000E+03 0.  1.
      622    1    1    2    0    0 -0.11994575123E-02  0.13334947902E+00  0.33715974861E+01  0.34271640070E+01  0.60000000000E+00 0.  0.
</event>
<event>
 5   0  0.1014700E+04  0.9118800E+02  0.7818608E-02  0.1180000E+00
       11   -1    0    0    0    0  0.00000000000E+00  0.00000000000E+00  0.39999999673E+01  0.40000000000E+01  0.51109989000E-03 0.  1.
     -623   -1    0    0    0    0  0.00000000000E+00  0.00000000000E+00  0.12525980253E-10  0.17130000000E+03  0.17130000000E+03 0.  1.
       11    1    1    2    0    0 -0.44238131264E-01  0.41574274628E-01  0.31623156887E-01  0.68452303407E-01  0.51109989000E-03 0.  1.
     -623    1    1    2    0    0 -0.11303397081E-01 -0.12629006193E+00  0.84271547906E-01  0.17130006766E+03  0.17130000000E+03 0.  1.
      622    1    1    2    0    0  0.55541528346E-01  0.84715787304E-01  0.38841052626E+01  0.39314800415E+01  0.60000000000E+00 0.  1.
</event>
<event>
 5   0  0.1014700E+04  0.9118800E+02  0.7818608E-02  0.1180000E+00
       11   -1    0    0    0    0  0.00000000000E+00  0.00000000000E+00  0.39999999673E+01  0.40000000000E+01  0.51109989000E-03 0.  1.
     -623   -1    0    0    0    0  0.00000000000E+00  0.00000000000E+00  0.12525980253E-10  0.17130000000E+03  0.17130000000E+03 0. -1.
       11    1    1    2    0    0  0.23141475670E-01 -0.25512708989E-01  0.43172492650E+00  0.43309710182E+00  0.51109989000E-03 0.  1.
     -623    1    1    2    0    0 -0.56645139079E-01  0.93177996556E-01  0.53052573262E-01  0.17130004292E+03  0.17130000000E+03 0. -1.
      622    1    1    2    0    0  0.33503663409E-01 -0.67665287567E-01  0.35152224676E+01  0.35668599753E+01  0.60000000000E+00 0.  1.
</event>
<event>
 5   0  0.1014700E+04  0.9118800E+02  0.7818608E-02  0.1180000E+00
       11   -1    0    0    0    0  0.00000000000E+00  0.00000000000E+00  0.39999999673E+01  0.40000000000E+01  0.51109989000E-03 0. -1.
     -623   -1    0    0    0    0  0.00000000000E+00  0.00000000000E+00  0.12525980253E-10  0.17130000000E+03  0.17130000000E+03 0.  1.
       11    1    1    2    0    0  0.70357781030E-01 -0.39469757471E-01  0.18438898212E+00  0.20126509149E+00  0.51109989000E-03 0. -1.
     -623    1    1    2    0    0 -0.91566106238E-01 -0.18056583568E-01  0.65098927671E-01  0.17130003779E+03  0.17130000000E+03 0.  1.
      622    1    1    2    0    0  0.21208325208E-01  0.57526341038E-01  0.37505120576E+01  0.37986971144E+01  0.60000000000E+00 0. -1.
</event>
<event>
 5   0  0.1014700E+04  0.9118800E+02  0.7818608E-02  0.1180000E+00
       11   -1    0    0    0    0  0.00000000000E+00  0.00000000000E+00  0.39999999673E+01  0.40000000000E+01  0.51109989000E-03 0. -1.
     -623   -1    0    0    0    0  0.00000000000E+00  0.00000000000E+00  0.12525980253E-10  0.17130000000E+03  0.17130000000E+03 0.  1.
       11    1    1    2    0    0 -0.84031287565E-01  0.23614443724E-01  0.62708163226E+00  0.63312758113E+00  0.51109989000E-03 0. -1.
     -623    1    1    2    0    0  0.10132031375E-01 -0.16464272002E-01  0.60783419779E-01  0.17130001187E+03  0.17130000000E+03 0.  1.
      622    1    1    2    0    0  0.73899256189E-01 -0.71501717222E-02  0.33121349153E+01  0.33668605439E+01  0.60000000000E+00 0.  0.
</event>
<event>
 5   0  0.1014700E+04  0.9118800E+02  0.7818608E-02  0.1180000E+00
       11   -1    0    0    0    0  0.00000000000E+00  0.00000000000E+00  0.39999999673E+01  0.40000000000E+01  0.51109989000E-03 0.  1.
     -623   -1    0    0    0    0  0.00000000000E+00  0.00000000000E+00  0.12525980253E-10  0.17130000000E+03  0.17130000000E+03 0. -1.
       11    1    1    2    0    0 -0.80767223829E-01 -0.15599366994E-01  0.20948576390E+00  0.22505828400E+00  0.51109989000E-03 0.  1.
     -623    1    1    2    0    0  0.78758865902E-01  0.15446164290E+00  0.66250649703E-01  0.17130010056E+03  0.17130000000E+03 0. -1.
      622    1    1    2    0    0  0.20083579267E-02 -0.13886227591E+00  0.37242635538E+01  0.37748411600E+01  0.60000000000E+00 0.  1.
</event>
<event>
 5   0  0.1014700E+04  0.9118800E+02  0.7818608E-02  0.1180000E+00
       11   -1    0    0    0    0  0.00000000000E+00  0.00000000000E+00  0.39999999673E+01  0.40000000000E+01  0.51109989000E-03 0.  1.
     -623   -1    0    0    0    0  0.00000000000E+00  0.00000000000E+00  0.12525980253E-10  0.17130000000E+03  0.17130000000E+03 0. -1.
       11    1    1    2    0    0  0.18394376356E-01 -0.13756357714E+00  0.11495240616E+01  0.11578721519E+01  0.51109989000E-03 0.  1.
     -623    1    1    2    0    0  0.21612418389E+00  0.25211317416E+00  0.85042719870E-01  0.17130034297E+03  0.17130000000E+03 0. -1.
      622    1    1    2    0    0 -0.23451856025E+00 -0.11454959702E+00  0.27654331859E+01  0.28417848742E+01  0.60000000000E+00 0.  1.
</event>
<event>
 5   0  0.1014700E+04  0.9118800E+02  0.7818608E-02  0.1180000E+00
       11   -1    0    0    0    0  0.00000000000E+00  0.00000000000E+00  0.39999999673E+01  0.40000000000E+01  0.51109989000E-03 0.  1.
     -623   -1    0    0    0    0  0.00000000000E+00  0.00000000000E+00  0.12525980253E-10  0.17130000000E+03  0.17130000000E+03 0. -1.
       11    1    1    2    0    0 -0.11720371290E+00  0.39145803969E-02  0.63301486492E+00  0.64378576770E+00  0.51109989000E-03 0.  1.
     -623    1    1    2    0    0  0.49651554847E-01  0.15400793396E-01  0.65606554524E-01  0.17130002045E+03  0.17130000000E+03 0. -1.
      622    1    1    2    0    0  0.67552158056E-01 -0.19315373793E-01  0.33013785479E+01  0.33561937808E+01  0.60000000000E+00 0.  1.
</event>
<event>
 5   0  0.1014700E+04  0.9118800E+02  0.7818608E-02  0.1180000E+00
       11   -1    0    0    0    0  0.00000000000E+00  0.00000000000E+00  0.39999999673E+01  0.40000000000E+01  0.51109989000E-03 0. -1.
     -623   -1    0    0    0    0  0.00000000000E+00  0.00000000000E+00  0.12525980253E-10  0.17130000000E+03  0.17130000000E+03 0.  1.
       11    1    1    2    0    0 -0.45222719301E-01 -0.80343791147E-01  0.70558246868E+00  0.71158070550E+00  0.51109989000E-03 0. -1.
     -623    1    1    2    0    0 -0.76593418164E-01  0.99519273852E-01  0.63610452928E-01  0.17130005784E+03  0.17130000000E+03 0.  1.
      622    1    1    2    0    0  0.12181613747E+00 -0.19175482705E-01  0.32308070458E+01  0.32883614518E+01  0.60000000000E+00 0. -1.
</event>
<event>
 5   0  0.1014700E+04  0.9118800E+02  0.7818608E-02  0.1180000E+00
       11   -1    0    0    0    0  0.00000000000E+00  0.00000000000E+00  0.39999999673E+01  0.40000000000E+01  0.51109989000E-03 0. -1.
     -623   -1    0    0    0    0  0.00000000000E+00  0.00000000000E+00  0.12525980253E-10  0.17130000000E+03  0.17130000000E+03 0. -1.
       11    1    1    2    0    0 -0.94051633470E-01  0.79507372615E-01  0.18074956336E+00  0.21871853588E+00  0.51109989000E-03 0. -1.
     -623    1    1    2    0    0 -0.24333393048E-01 -0.70668628709E-01  0.87802576393E-01  0.17130003881E+03  0.17130000000E+03 0. -1.
      622    1    1    2    0    0  0.11838502652E+00 -0.88387439059E-02  0.37314478276E+01  0.37812426566E+01  0.60000000000E+00 0. -1.
</event>
<event>
 5   0  0.1014700E+04  0.9118800E+02  0.7818608E-02  0.1180000E+00
       11   -1    0    0    0    0  0.00000000000E+00  0.00000000000E+00  0.39999999673E+01  0.40000000000E+01  0.51109989000E-03 0. -1.
     -623   -1    0    0    0    0  0.00000000000E+00  0.00000000000E+00  0.12525980253E-10  0.17130000000E+03  0.17130000000E+03 0.  1.
       11    1    1    2    0    0  0.47553015761E-02 -0.16485231961E-01  0.17065558318E-01  0.24204757170E-01  0.51109989000E-03 0. -1.
     -623    1    1    2    0    0 -0.31956194232E-01  0.14771950912E-01  0.52780268695E-01  0.17130001175E+03  0.17130000000E+03 0.  1.
      622    1    1    2    0    0  0.27200892656E-01  0.17132810490E-02  0.39301541403E+01  0.39757834940E+01  0.60000000000E+00 0. -1.
</event>
<event>
 5   0  0.1014700E+04  0.9118800E+02  0.7818608E-02  0.1180000E+00
       11   -1    0    0    0    0  0.00000000000E+00  0.00000000000E+00  0.39999999673E+01  0.40000000000E+01  0.51109989000E-03 0. -1.
     -623   -1    0    0    0    0  0.00000000000E+00  0.00000000000E+00  0.12525980253E-10  0.17130000000E+03  0.17130000000E+03 0. -1.
       11    1    1    2    0    0  0.40252837703E-01  0.52051260393E-01  0.44579113711E+00  0.45062137521E+00  0.51109989000E-03 0. -1.
     -623    1    1    2    0    0 -0.67677237832E-01 -0.15193691820E-01  0.56236155919E-01  0.17130002327E+03  0.17130000000E+03 0. -1.
      622    1    1    2    0    0  0.27424400129E-01 -0.36857568573E-01  0.34979726743E+01  0.35493553511E+01  0.60000000000E+00 0. -1.
</event>
<event>
 5   0  0.1014700E+04  0.9118800E+02  0.7818608E-02  0.1180000E+00
       11   -1    0    0    0    0  0.00000000000E+00  0.00000000000E+00  0.39999999673E+01  0.40000000000E+01  0.51109989000E-03 0. -1.
     -623   -1    0    0    0    0  0.00000000000E+00  0.00000000000E+00  0.12525980253E-10  0.17130000000E+03  0.17130000000E+03 0.  1.
       11    1    1    2    0    0 -0.43673833025E-01  0.16852983532E-01  0.15767573214E+00  0.16447894842E+00  0.51109989000E-03 0. -1.
     -623    1    1    2    0    0  0.21515672104E-01  0.17417701126E-01  0.54254382704E-01  0.17130001083E+03  0.17130000000E+03 0.  1.
      622    1    1    2    0    0  0.22158160921E-01 -0.34270684658E-01  0.37880698525E+01  0.38355102231E+01  0.60000000000E+00 0. -1.
</event>
<event>
 5   0  0.1014700E+04  0.9118800E+02  0.7818608E-02  0.1180000E+00
       11   -1    0    0    0    0  0.00000000000E+00  0.00000000000E+00  0.39999999673E+01  0.40000000000E+01  0.51109989000E-03 0. -1.
     -623   -1    0    0    0    0  0.00000000000E+00  0.00000000000E+00  0.12525980253E-10  0.17130000000E+03  0.17130000000E+03 0.  1.
       11    1    1    2    0    0  0.29444597744E-01 -0.87865984392E-01  0.42466100690E+00  0.43465463020E+00  0.51109989000E-03 0. -1.
     -623    1    1    2    0    0  0.18945936025E-01  0.23606413513E-01  0.61776926259E-01  0.17130001381E+03  0.17130000000E+03 0.  1.
      622    1    1    2    0    0 -0.48390533769E-01  0.64259570879E-01  0.35135620342E+01  0.35653315560E+01  0.60000000000E+00 0. -1.
</event>
<event>
 5   0  0.1014700E+04  0.9118800E+02  0.7818608E-02  0.1180000E+00
       11   -1    0    0    0    0  0.00000000000E+00  0.00000000000E+00  0.39999999673E+01  0.40000000000E+01  0.51109989000E-03 0.  1.
     -623   -1    0    0    0    0  0.00000000000E+00  0.00000000000E+00  0.12525980253E-10  0.17130000000E+03  0.17130000000E+03 0.  1.
       11    1    1    2    0    0 -0.24794428061E-01  0.16890098169E-01  0.54537382862E-01  0.62246497326E-01  0.51109989000E-03 0.  1.
     -623    1    1    2    0    0  0.34448332505E-01 -0.57881021405E-01  0.53938715447E-01  0.17130002173E+03  0.17130000000E+03 0.  1.
      622    1    1    2    0    0 -0.96539044439E-02  0.40990923236E-01  0.38915238691E+01  0.39377317680E+01  0.60000000000E+00 0.  1.
</event>
<event>
 5   0  0.1014700E+04  0.9118800E+02  0.7818608E-02  0.1180000E+00
       11   -1    0    0    0    0  0.00000000000E+00  0.00000000000E+00  0.39999999673E+01  0.40000000000E+01  0.51109989000E-03 0. -1.
     -623   -1    0    0    0    0  0.00000000000E+00  0.00000000000E+00  0.12525980253E-10  0.17130000000E+03  0.17130000000E+03 0.  1.
       11    1    1    2    0    0  0.37917533385E-01  0.42060100143E-01  0.83043423574E+00  0.83236294515E+00  0.51109989000E-03 0. -1.
     -623    1    1    2    0    0  0.28759468082E-01 -0.15831122978E-01  0.60111763164E-01  0.17130001369E+03  0.17130000000E+03 0.  1.
      622    1    1    2    0    0 -0.66677001467E-01 -0.26228977164E-01  0.31094539685E+01  0.31676233620E+01  0.60000000000E+00 0. -1.
</event>
<event>
 5   0  0.1014700E+04  0.9118800E+02  0.7818608E-02  0.1180000E+00
       11   -1    0    0    0    0  0.00000000000E+00  0.00000000000E+00  0.39999999673E+01  0.40000000000E+01  0.51109989000E-03 0. -1.
     -623   -1    0    0    0    0  0.00000000000E+00  0.00000000000E+00  0.12525980253E-10  0.17130000000E+03  0.17130000000E+03 0. -1.
       11    1    1    2    0    0  0.12614941428E+00 -0.10140800610E+00  0.11123795099E+01  0.11240932763E+01  0.51109989000E-03 0. -1.
     -623    1    1    2    0    0  0.37050694095E-01  0.71476724497E-01  0.79935782527E-01  0.17130003757E+03  0.17130000000E+03 0. -1.
      622    1    1    2    0    0 -0.16320010838E+00  0.29931281600E-01  0.28076846749E+01  0.28758691540E+01  0.60000000000E+00 0. -1.
</event>
<event>
 5   0  0.1014700E+04  0.9118800E+02  0.7818608E-02  0.1180000E+00
       11   -1    0    0    0    0  0.00000000000E+00  0.00000000000E+00  0.39999999673E+01  0.40000000000E+01  0.51109989000E-03 0.  1.
     -623   -1    0    0    0    0  0.00000000000E+00  0.00000000000E+00  0.12525980253E-10  0.17130000000E+03  0.17130000000E+03 0.  1.
       11    1    1    2    0    0  0.25712204688E-01 -0.15228857063E-01  0.41771790076E-01  0.51363208859E-01  0.51109989000E-03 0.  1.
     -623    1    1    2    0    0 -0.88232450129E-01  0.12086468235E-01  0.55977697787E-01  0.17130003230E+03  0.17130000000E+03 0.  1.
      622    1    1    2    0    0  0.62520245441E-01  0.31423888281E-02  0.39022504795E+01  0.39486044953E+01  0.60000000000E+00 0.  1.
</event>
<event>
 5   0  0.1014700E+04  0.9118800E+02  0.7818608E-02  0.1180000E+00
       11   -1    0    0    0    0  0.00000000000E+00  0.00000000000E+00  0.39999999673E+01  0.40000000000E+01  0.51109989000E-03 0.  1.
     -623   -1    0    0    0    0  0.00000000000E+00  0.00000000000E+00  0.12525980253E-10  0.17130000000E+03  0.17130000000E+03 0.  1.
       11    1    1    2    0    0 -0.19656943124E-02 -0.22913195755E-01  0.10083377180E-01  0.25116015056E-01  0.51109989000E-03 0.  1.
     -623    1    1    2    0    0  0.10690474154E-01  0.26391135503E-01  0.60602344444E-01  0.17130001309E+03  0.17130000000E+03 0.  1.
      622    1    1    2    0    0 -0.87247798412E-02 -0.34779397476E-02  0.39293142457E+01  0.39748708985E+01  0.60000000000E+00 0.  1.
</event>
<event>
 5   0  0.1014700E+04  0.9118800E+02  0.7818608E-02  0.1180000E+00
       11   -1    0    0    0    0  0.00000000000E+00  0.00000000000E+00  0.39999999673E+01  0.40000000000E+01  0.51109989000E-03 0.  1.
     -623   -1    0    0    0    0  0.00000000000E+00  0.00000000000E+00  0.12525980253E-10  0.17130000000E+03  0.17130000000E+03 0.  1.
       11    1    1    2    0    0  0.84079016121E-01  0.53942726397E-01  0.48301857829E-01  0.11096138687E+00  0.51109989000E-03 0.  1.
     -623    1    1    2    0    0 -0.89750268649E-02  0.10491472906E+00  0.11331279637E+00  0.17130006984E+03  0.17130000000E+03 0.  1.
      622    1    1    2    0    0 -0.75103989256E-01 -0.15885745546E+00  0.38383853132E+01  0.38889687724E+01  0.60000000000E+00 0.  1.
</event>
<event>
 5   0  0.1014700E+04  0.9118800E+02  0.7818608E-02  0.1180000E+00
       11   -1    0    0    0    0  0.00000000000E+00  0.00000000000E+00  0.39999999673E+01  0.40000000000E+01  0.51109989000E-03 0. -1.
     -623   -1    0    0    0    0  0.00000000000E+00  0.00000000000E+00  0.12525980253E-10  0.17130000000E+03  0.17130000000E+03 0.  1.
       11    1    1    2    0    0 -0.50985571159E-01  0.18290033960E-01  0.77940459413E+00  0.78128473451E+00  0.51109989000E-03 0. -1.
     -623    1    1    2    0    0 -0.12685670503E+00 -0.60322306158E-01  0.63652786546E-01  0.17130006942E+03  0.17130000000E+03 0.  1.
      622    1    1    2    0    0  0.17784227619E+00  0.42032272198E-01  0.31569425867E+01  0.32186458461E+01  0.60000000000E+00 0. -1.
</event>
<event>
 5   0  0.1014700E+04  0.9118800E+02  0.7818608E-02  0.1180000E+00
       11   -1    0    0    0    0  0.00000000000E+00  0.00000000000E+00  0.39999999673E+01  0.40000000000E+01  0.51109989000E-03 0. -1.
     -623   -1    0    0    0    0  0.00000000000E+00  0.00000000000E+00  0.12525980253E-10  0.17130000000E+03  0.17130000000E+03 0.  1.
       11    1    1    2    0    0  0.13149947807E+00  0.58053587432E-01  0.50066128251E+00  0.52088800406E+00  0.51109989000E-03 0. -1.
     -623    1    1    2    0    0 -0.55943751208E-01 -0.21365715014E+00  0.76885119825E-01  0.17130015963E+03  0.17130000000E+03 0.  1.
      622    1    1    2    0    0 -0.75555726861E-01  0.15560356271E+00  0.34224535650E+01  0.34789523626E+01  0.60000000000E+00 0. -1.
</event>
<event>
 5   0  0.1014700E+04  0.9118800E+02  0.7818608E-02  0.1180000E+00
       11   -1    0    0    0    0  0.00000000000E+00  0.00000000000E+00  0.39999999673E+01  0.40000000000E+01  0.51109989000E-03 0.  1.
     -623   -1    0    0    0    0  0.00000000000E+00  0.00000000000E+00  0.12525980253E-10  0.17130000000E+03  0.17130000000E+03 0.  1.
       11    1    1    2    0    0 -0.12302404836E-01 -0.30542238665E-01  0.90612945363E-01  0.96411330236E-01  0.51109989000E-03 0.  1.
     -623    1    1    2    0    0  0.52029210005E-01  0.10047845232E-01  0.52460841836E-01  0.17130001623E+03  0.17130000000E+03 0.  1.
      622    1    1    2    0    0 -0.39726805170E-01  0.20494393433E-01  0.38569261802E+01  0.39035724405E+01  0.60000000000E+00 0.  1.
</event>
<event>
 5   0  0.1014700E+04  0.9118800E+02  0.7818608E-02  0.1180000E+00
       11   -1    0    0    0    0  0.00000000000E+00  0.00000000000E+00  0.39999999673E+01  0.40000000000E+01  0.51109989000E-03 0.  1.
     -623   -1    0    0    0    0  0.00000000000E+00  0.00000000000E+00  0.12525980253E-10  0.17130000000E+03  0.17130000000E+03 0.  1.
       11    1    1    2    0    0  0.28332525518E-02  0.27290454123E-02  0.60803625872E-03  0.40132205209E-02  0.51109989000E-03 0.  1.
     -623    1    1    2    0    0 -0.14813112091E-02 -0.22749043546E-01  0.48766649799E-01  0.17130000846E+03  0.17130000000E+03 0.  1.
      622    1    1    2    0    0 -0.13519413427E-02  0.20019998134E-01  0.39506252813E+01  0.39959783209E+01  0.60000000000E+00 0.  1.
</event>
<event>
 5   0  0.1014700E+04  0.9118800E+02  0.7818608E-02  0.1180000E+00
       11   -1    0    0    0    0  0.00000000000E+00  0.00000000000E+00  0.39999999673E+01  0.40000000000E+01  0.51109989000E-03 0.  1.
     -623   -1    0    0    0    0  0.00000000000E+00  0.00000000000E+00  0.12525980253E-10  0.17130000000E+03  0.17130000000E+03 0. -1.
       11    1    1    2    0    0 -0.18195729085E+00 -0.33650934794E-01  0.55090754913E+00  0.58115422223E+00  0.51109989000E-03 0.  1.
     -623    1    1    2    0    0  0.19633784343E+00 -0.67386033764E-01  0.85004577204E-01  0.17130014686E+03  0.17130000000E+03 0. -1.
      622    1    1    2    0    0 -0.14380552577E-01  0.10103696856E+00  0.33640878410E+01  0.34186989150E+01  0.60000000000E+00 0.  1.
</event>
<event>
 5   0  0.1014700E+04  0.9118800E+02  0.7818608E-02  0.1180000E+00
       11   -1    0    0    0    0  0.00000000000E+00  0.00000000000E+00  0.39999999673E+01  0.40000000000E+01  0.51109989000E-03 0. -1.
     -623   -1    0    0    0    0  0.00000000000E+00  0.00000000000E+00  0.12525980253E-10  0.17130000000E+03  0.17130000000E+03 0. -1.
       11    1    1    2    0    0  0.23165840831E-01  0.20906092307E+00  0.10168806780E+01  0.10384072901E+01  0.51109989000E-03 0. -1.
     -623    1    1    2    0    0  0.35801535234E-01 -0.38587998759E-01  0.88588303998E-01  0.17130003099E+03  0.17130000000E+03 0. -1.
      622    1    1    2    0    0 -0.58967376065E-01 -0.17047292431E+00  0.28945309854E+01  0.29615617155E+01  0.60000000000E+00 0.  0.
</event>
<event>
 5   0  0.1014700E+04  0.9118800E+02  0.7818608E-02  0.1180000E+00
       11   -1    0    0    0    0  0.00000000000E+00  0.00000000000E+00  0.39999999673E+01  0.40000000000E+01  0.51109989000E-03 0. -1.
     -623   -1    0    0    0    0  0.00000000000E+00  0.00000000000E+00  0.12525980253E-10  0.17130000000E+03  0.17130000000E+03 0. -1.
       11    1    1    2    0    0  0.44804839849E-01  0.93389700327E-01  0.66955696107E+00  0.67752187798E+00  0.51109989000E-03 0. -1.
     -623    1    1    2    0    0  0.11237277453E+00  0.89520909438E-01  0.71578165165E-01  0.17130007520E+03  0.17130000000E+03 0. -1.
      622    1    1    2    0    0 -0.15717761438E+00 -0.18291060977E+00  0.32588648411E+01  0.33224029175E+01  0.60000000000E+00 0.  0.
</event>
<event>
 5   0  0.1014700E+04  0.9118800E+02  0.7818608E-02  0.1180000E+00
       11   -1    0    0    0    0  0.00000000000E+00  0.00000000000E+00  0.39999999673E+01  0.40000000000E+01  0.51109989000E-03 0.  1.
     -623   -1    0    0    0    0  0.00000000000E+00  0.00000000000E+00  0.12525980253E-10  0.17130000000E+03  0.17130000000E+03 0. -1.
       11    1    1    2    0    0 -0.25541408604E-01 -0.14761485598E-01  0.37956892362E-01  0.48075481396E-01  0.51109989000E-03 0.  1.
     -623    1    1    2    0    0  0.29155246054E-01  0.12520298192E+00  0.57553435007E-01  0.17130005790E+03  0.17130000000E+03 0. -1.
      622    1    1    2    0    0 -0.36138374497E-02 -0.11044149632E+00  0.39044896400E+01  0.39518666137E+01  0.60000000000E+00 0.  1.
</event>
<event>
 5   0  0.1014700E+04  0.9118800E+02  0.7818608E-02  0.1180000E+00
       11   -1    0    0    0    0  0.00000000000E+00  0.00000000000E+00  0.39999999673E+01  0.40000000000E+01  0.51109989000E-03 0. -1.
     -623   -1    0    0    0    0  0.00000000000E+00  0.00000000000E+00  0.12525980253E-10  0.17130000000E+03  0.17130000000E+03 0.  1.
       11    1    1    2    0    0 -0.47254128023E-02 -0.10970791187E+00  0.46228175975E+00  0.47514507476E+00  0.51109989000E-03 0. -1.
     -623    1    1    2    0    0 -0.24710264894E-01  0.15940823150E-02  0.66127133062E-01  0.17130001455E+03  0.17130000000E+03 0.  1.
      622    1    1    2    0    0  0.29435677697E-01  0.10811382956E+00  0.34715910746E+01  0.35248403720E+01  0.60000000000E+00 0. -1.
</event>
<event>
 5   0  0.1014700E+04  0.9118800E+02  0.7818608E-02  0.1180000E+00
       11   -1    0    0    0    0  0.00000000000E+00  0.00000000000E+00  0.39999999673E+01  0.40000000000E+01  0.51109989000E-03 0.  1.
     -623   -1    0    0    0    0  0.00000000000E+00  0.00000000000E+00  0.12525980253E-10  0.17130000000E+03  0.17130000000E+03 0. -1.
       11    1    1    2    0    0 -0.39655029137E-01 -0.31728679807E-01  0.11234742754E+00  0.12329410430E+00  0.51109989000E-03 0.  1.
     -623    1    1    2    0    0  0.32396004071E-01  0.58030411327E-01  0.57779354887E-01  0.17130002264E+03  0.17130000000E+03 0. -1.
      622    1    1    2    0    0  0.72590250660E-02 -0.26301731520E-01  0.38298731849E+01  0.38766832586E+01  0.60000000000E+00 0.  1.
</event>
<event>
 5   0  0.1014700E+04  0.9118800E+02  0.7818608E-02  0.1180000E+00
       11   -1    0    0    0    0  0.00000000000E+00  0.00000000000E+00  0.39999999673E+01  0.40000000000E+01  0.51109989000E-03 0.  1.
     -623   -1    0    0    0    0  0.00000000000E+00  0.00000000000E+00  0.12525980253E-10  0.17130000000E+03  0.17130000000E+03 0. -1.
       11    1    1    2    0    0  0.50788489882E-01 -0.49459746617E-01  0.54721437984E+00  0.55178761853E+00  0.51109989000E-03 0.  1.
     -623    1    1    2    0    0 -0.10968988360E+00  0.38108117235E-01  0.57755128098E-01  0.17130004909E+03  0.17130000000E+03 0. -1.
      622    1    1    2    0    0  0.58901393715E-01  0.11351629382E-01  0.33950304594E+01  0.34481632870E+01  0.60000000000E+00 0.  1.
</event>
<event>
 5   0  0.1014700E+04  0.9118800E+02  0.7818608E-02  0.1180000E+00
       11   -1    0    0    0    0  0.00000000000E+00  0.00000000000E+00  0.39999999673E+01  0.40000000000E+01  0.51109989000E-03 0. -1.
     -623   -1    0    0    0    0  0.00000000000E+00  0.00000000000E+00  0.12525980253E-10  0.17130000000E+03  0.17130000000E+03 0.  1.
       11    1    1    2    0    0  0.75272755985E-01 -0.93728590893E-02  0.11086597453E+01  0.11112517853E+01  0.51109989000E-03 0. -1.
     -623    1    1    2    0    0 -0.11299013099E-01 -0.71388954128E-01  0.67497766876E-01  0.17130002855E+03  0.17130000000E+03 0.  1.
      622    1    1    2    0    0 -0.63973742886E-01  0.80761813217E-01  0.28238424552E+01  0.28887196683E+01  0.60000000000E+00 0. -1.
</event>
<event>
 5   0  0.1014700E+04  0.9118800E+02  0.7818608E-02  0.1180000E+00
       11   -1    0    0    0    0  0.00000000000E+00  0.00000000000E+00  0.39999999673E+01  0.40000000000E+01  0.51109989000E-03 0. -1.
     -623   -1    0    0    0    0  0.00000000000E+00  0.00000000000E+00  0.12525980253E-10  0.17130000000E+03  0.17130000000E+03 0. -1.
       11    1    1    2    0    0 -0.43141102153E-02  0.13223895815E-01  0.15145034061E+00  0.15208862503E+00  0.51109989000E-03 0. -1.
     -623    1    1    2    0    0 -0.11246178521E-01  0.91760042990E-02  0.47809962755E-01  0.17130000729E+03  0.17130000000E+03 0. -1.
      622    1    1    2    0    0  0.15560288736E-01 -0.22399900114E-01  0.38007396640E+01  0.38479040882E+01  0.60000000000E+00 0. -1.
</event>
<event>
 5   0  0.1014700E+04  0.9118800E+02  0.7818608E-02  0.1180000E+00
       11   -1    0    0    0    0  0.00000000000E+00  0.00000000000E+00  0.39999999673E+01  0.40000000000E+01  0.51109989000E-03 0.  1.
     -623   -1    0    0    0    0  0.00000000000E+00  0.00000000000E+00  0.12525980253E-10  0.17130000000E+03  0.17130000000E+03 0.  1.
       11    1    1    2    0    0 -0.40866178121E-01 -0.18890566536E-01  0.23662153385E-01  0.50863117719E-01  0.51109989000E-03 0.  1.
     -623    1    1    2    0    0  0.33076446919E-02  0.56891193003E-01  0.73437837882E-01  0.17130002522E+03  0.17130000000E+03 0.  1.
      622    1    1    2    0    0  0.37558533429E-01 -0.38000626467E-01  0.39028999761E+01  0.39491116614E+01  0.60000000000E+00 0.  1.
</event>
<event>
 5   0  0.1014700E+04  0.9118800E+02  0.7818608E-02  0.1180000E+00
       11   -1    0    0    0    0  0.00000000000E+00  0.00000000000E+00  0.39999999673E+01  0.40000000000E+01  0.51109989000E-03 0. -1.
     -623   -1    0    0    0    0  0.00000000000E+00  0.00000000000E+00  0.12525980253E-10  0.17130000000E+03  0.17130000000E+03 0. -1.
       11    1    1    2    0    0  0.17423093799E-03  0.65496557405E-02  0.10236503906E+00  0.10257578072E+00  0.51109989000E-03 0. -1.
     -623    1    1    2    0    0 -0.35698387250E-01  0.90646159957E-02  0.46878001259E-01  0.17130001037E+03  0.17130000000E+03 0. -1.
      622    1    1    2    0    0  0.35524156312E-01 -0.15614271736E-01  0.38507569270E+01  0.38974138454E+01  0.60000000000E+00 0. -1.
</event>
<event>
 5   0  0.1014700E+04  0.9118800E+02  0.7818608E-02  0.1180000E+00
       11   -1    0    0    0    0  0.00000000000E+00  0.00000000000E+00  0.39999999673E+01  0.40000000000E+01  0.51109989000E-03 0. -1.
     -623   -1    0    0    0    0  0.00000000000E+00  0.00000000000E+00  0.12525980253E-10  0.17130000000E+03  0.17130000000E+03 0.  1.
       11    1    1    2    0    0  0.87836463516E-02 -0.10984956165E-01  0.24200144182E-01  0.27995176490E-01  0.51109989000E-03 0. -1.
     -623    1    1    2    0    0 -0.11391843324E-01  0.14549706832E-01  0.49384366261E-01  0.17130000812E+03  0.17130000000E+03 0.  1.
      622    1    1    2    0    0  0.26081969724E-02 -0.35647506670E-02  0.39264154569E+01  0.39719967083E+01  0.60000000000E+00 0. -1.
</event>
<event>
 5   0  0.1014700E+04  0.9118800E+02  0.7818608E-02  0.1180000E+00
       11   -1    0    0    0    0  0.00000000000E+00  0.00000000000E+00  0.39999999673E+01  0.40000000000E+01  0.51109989000E-03 0.  1.
     -623   -1    0    0    0    0  0.00000000000E+00  0.00000000000E+00  0.12525980253E-10  0.17130000000E+03  0.17130000000E+03 0.  1.
       11    1    1    2    0    0  0.23825287127E-01  0.27712565967E-01  0.77556226661E-01  0.85737157267E-01  0.51109989000E-03 0.  1.
     -623    1    1    2    0    0 -0.22201145267E-01  0.21468356624E-01  0.54764607800E-01  0.17130001154E+03  0.17130000000E+03 0.  1.
      622    1    1    2    0    0 -0.16241418600E-02 -0.49180922591E-01  0.38676791329E+01  0.39142513047E+01  0.60000000000E+00 0.  1.
</event>
<event>
 5   0  0.1014700E+04  0.9118800E+02  0.7818608E-02  0.1180000E+00
       11   -1    0    0    0    0  0.00000000000E+00  0.00000000000E+00  0.39999999673E+01  0.40000000000E+01  0.51109989000E-03 0.  1.
     -623   -1    0    0    0    0  0.00000000000E+00  0.00000000000E+00  0.12525980253E-10  0.17130000000E+03  0.17130000000E+03 0.  1.
       11    1    1    2    0    0 -0.20005535486E+00  0.90208866094E-01  0.20800250044E+00  0.30236581477E+00  0.51109989000E-03 0.  1.
     -623    1    1    2    0    0  0.16948109827E-01 -0.10198447351E+00  0.14808094645E+00  0.17130009520E+03  0.17130000000E+03 0.  1.
      622    1    1    2    0    0  0.18310724503E+00  0.11775607415E-01  0.36439165205E+01  0.36975389837E+01  0.60000000000E+00 0. -1.
</event>
<event>
 5   0  0.1014700E+04  0.9118800E+02  0.7818608E-02  0.1180000E+00
       11   -1    0    0    0    0  0.00000000000E+00  0.00000000000E+00  0.39999999673E+01  0.40000000000E+01  0.51109989000E-03 0. -1.
     -623   -1    0    0    0    0  0.00000000000E+00  0.00000000000E+00  0.12525980253E-10  0.17130000000E+03  0.17130000000E+03 0. -1.
       11    1    1    2    0    0 -0.25485457678E-01  0.32808598024E-01  0.38469209088E-01  0.56622026871E-01  0.51109989000E-03 0. -1.
     -623    1    1    2    0    0 -0.37337732560E-01 -0.61843768504E-01  0.64708525025E-01  0.17130002745E+03  0.17130000000E+03 0. -1.
      622    1    1    2    0    0  0.62823190238E-01  0.29035170481E-01  0.38968222332E+01  0.39433505185E+01  0.60000000000E+00 0. -1.
</event>
<event>
 5   0  0.1014700E+04  0.9118800E+02  0.7818608E-02  0.1180000E+00
       11   -1    0    0    0    0  0.00000000000E+00  0.00000000000E+00  0.39999999673E+01  0.40000000000E+01  0.51109989000E-03 0. -1.
     -623   -1    0    0    0    0  0.00000000000E+00  0.00000000000E+00  0.12525980253E-10  0.17130000000E+03  0.17130000000E+03 0. -1.
       11    1    1    2    0    0  0.28683025824E+00 -0.58504731319E-01  0.71928888340E+00  0.77657656392E+00  0.51109989000E-03 0. -1.
     -623    1    1    2    0    0 -0.19564742392E+00 -0.60783843123E-01  0.11734805392E+00  0.17130016271E+03  0.17130000000E+03 0. -1.
      622    1    1    2    0    0 -0.91182834311E-01  0.11928857444E+00  0.31633630300E+01  0.32232607299E+01  0.60000000000E+00 0.  0.
</event>
<event>
 5   0  0.1014700E+04  0.9118800E+02  0.7818608E-02  0.1180000E+00
       11   -1    0    0    0    0  0.00000000000E+00  0.00000000000E+00  0.39999999673E+01  0.40000000000E+01  0.51109989000E-03 0.  1.
     -623   -1    0    0    0    0  0.00000000000E+00  0.00000000000E+00  0.12525980253E-10  0.17130000000E+03  0.17130000000E+03 0.  1.
       11    1    1    2    0    0 -0.42874108893E-02  0.21934801972E-01  0.62062030041E-01  0.65965704920E-01  0.51109989000E-03 0.  1.
     -623    1    1    2    0    0  0.97036592455E-01  0.81201997161E-02  0.51185798297E-01  0.17130003532E+03  0.17130000000E+03 0.  1.
      622    1    1    2    0    0 -0.92749181566E-01 -0.30055001688E-01  0.38867521390E+01  0.39339989710E+01  0.60000000000E+00 0.  1.
</event>
<event>
 5   0  0.1014700E+04  0.9118800E+02  0.7818608E-02  0.1180000E+00
       11   -1    0    0    0    0  0.00000000000E+00  0.00000000000E+00  0.39999999673E+01  0.40000000000E+01  0.51109989000E-03 0.  1.
     -623   -1    0    0    0    0  0.00000000000E+00  0.00000000000E+00  0.12525980253E-10  0.17130000000E+03  0.17130000000E+03 0. -1.
       11    1    1    2    0    0  0.14863505304E+00  0.76813917067E-01  0.40940704538E+00  0.44227496750E+00  0.51109989000E-03 0.  1.
     -623    1    1    2    0    0  0.93742043895E-02 -0.81680224360E-01  0.87434684250E-01  0.17130004204E+03  0.17130000000E+03 0. -1.
      622    1    1    2    0    0 -0.15800925743E+00  0.48663072926E-02  0.35031582377E+01  0.35576829883E+01  0.60000000000E+00 0.  1.
</event>
<event>
 5   0  0.1014700E+04  0.9118800E+02  0.7818608E-02  0.1180000E+00
       11   -1    0    0    0    0  0.00000000000E+00  0.00000000000E+00  0.39999999673E+01  0.40000000000E+01  0.51109989000E-03 0. -1.
     -623   -1    0    0    0    0  0.00000000000E+00  0.00000000000E+00  0.12525980253E-10  0.17130000000E+03  0.17130000000E+03 0. -1.
       11    1    1    2    0    0  0.97723019674E-02 -0.20166802776E-01  0.45871063725E+00  0.45925799696E+00  0.51109989000E-03 0. -1.
     -623    1    1    2    0    0  0.93332269517E-01  0.14168500892E-01  0.53317937121E-01  0.17130003431E+03  0.17130000000E+03 0. -1.
      622    1    1    2    0    0 -0.10310457148E+00  0.59983018842E-02  0.34879713930E+01  0.35407076935E+01  0.60000000000E+00 0. -1.
</event>
<event>
 5   0  0.1014700E+04  0.9118800E+02  0.7818608E-02  0.1180000E+00
       11   -1    0    0    0    0  0.00000000000E+00  0.00000000000E+00  0.39999999673E+01  0.40000000000E+01  0.51109989000E-03 0. -1.
     -623   -1    0    0    0    0  0.00000000000E+00  0.00000000000E+00  0.12525980253E-10  0.17130000000E+03  0.17130000000E+03 0. -1.
       11    1    1    2    0    0  0.18012615805E-01 -0.41138468534E-02  0.30104755242E-01  0.35326131622E-01  0.51109989000E-03 0. -1.
     -623    1    1    2    0    0  0.95273862795E-02  0.49295943915E-01  0.51257712202E-01  0.17130001503E+03  0.17130000000E+03 0. -1.
      622    1    1    2    0    0 -0.27540002085E-01 -0.45182097062E-01  0.39186374999E+01  0.39646588415E+01  0.60000000000E+00 0. -1.
</event>
<event>
 5   0  0.1014700E+04  0.9118800E+02  0.7818608E-02  0.1180000E+00
       11   -1    0    0    0    0  0.00000000000E+00  0.00000000000E+00  0.39999999673E+01  0.40000000000E+01  0.51109989000E-03 0. -1.
     -623   -1    0    0    0    0  0.00000000000E+00  0.00000000000E+00  0.12525980253E-10  0.17130000000E+03  0.17130000000E+03 0. -1.
       11    1    1    2    0    0  0.28101519136E-01 -0.20875408191E-01  0.47801296420E-01  0.59251187371E-01  0.51109989000E-03 0. -1.
     -623    1    1    2    0    0  0.21629007783E-01  0.66251986482E-01  0.58000432848E-01  0.17130002400E+03  0.17130000000E+03 0. -1.
      622    1    1    2    0    0 -0.49730526919E-01 -0.45376578292E-01  0.38941982381E+01  0.39407248162E+01  0.60000000000E+00 0. -1.
</event>
<event>
 5   0  0.1014700E+04  0.9118800E+02  0.7818608E-02  0.1180000E+00
       11   -1    0    0    0    0  0.00000000000E+00  0.00000000000E+00  0.39999999673E+01  0.40000000000E+01  0.51109989000E-03 0.  1.
     -623   -1    0    0    0    0  0.00000000000E+00  0.00000000000E+00  0.12525980253E-10  0.17130000000E+03  0.17130000000E+03 0. -1.
       11    1    1    2    0    0  0.21124603105E-02  0.34493980201E-01  0.11778703384E+01  0.11783773133E+01  0.51109989000E-03 0.  1.
     -623    1    1    2    0    0 -0.18928506225E-01 -0.26866480995E-01  0.65115665302E-01  0.17130001553E+03  0.17130000000E+03 0. -1.
      622    1    1    2    0    0  0.16816045914E-01 -0.76274992060E-02  0.27570139637E+01  0.28216071580E+01  0.60000000000E+00 0.  1.
</event>
<event>
 5   0  0.1014700E+04  0.9118800E+02  0.7818608E-02  0.1180000E+00
       11   -1    0    0    0    0  0.00000000000E+00  0.00000000000E+00  0.39999999673E+01  0.40000000000E+01  0.51109989000E-03 0. -1.
     -623   -1    0    0    0    0  0.00000000000E+00  0.00000000000E+00  0.12525980253E-10  0.17130000000E+03  0.17130000000E+03 0.  1.
       11    1    1    2    0    0 -0.52347413156E-02  0.30088859388E-01  0.19974428448E+00  0.20206628215E+00  0.51109989000E-03 0. -1.
     -623    1    1    2    0    0 -0.92410642459E-01 -0.67692772632E-01  0.51522288035E-01  0.17130004605E+03  0.17130000000E+03 0.  1.
      622    1    1    2    0    0  0.97645383775E-01  0.37603913243E-01  0.37487333948E+01  0.37978876683E+01  0.60000000000E+00 0. -1.
</event>
<event>
 5   0  0.1014700E+04  0.9118800E+02  0.7818608E-02  0.1180000E+00
       11   -1    0    0    0    0  0.00000000000E+00  0.00000000000E+00  0.39999999673E+01  0.40000000000E+01  0.51109989000E-03 0. -1.
     -623   -1    0    0    0    0  0.00000000000E+00  0.00000000000E+00  0.12525980253E-10  0.17130000000E+03  0.17130000000E+03 0. -1.
       11    1    1    2    0    0  0.13249948743E-01 -0.16330594007E+00  0.15130102408E+00  0.22301715699E+00  0.51109989000E-03 0. -1.
     -623    1    1    2    0    0  0.81813296123E-01  0.74594282634E-01  0.12202562246E+00  0.17130007924E+03  0.17130000000E+03 0. -1.
      622    1    1    2    0    0 -0.95063244867E-01  0.88711657435E-01  0.37266733208E+01  0.37769036020E+01  0.60000000000E+00 0.  0.
</event>
<event>
 5   0  0.1014700E+04  0.9118800E+02  0.7818608E-02  0.1180000E+00
       11   -1    0    0    0    0  0.00000000000E+00  0.00000000000E+00  0.39999999673E+01  0.40000000000E+01  0.51109989000E-03 0. -1.
     -623   -1    0    0    0    0  0.00000000000E+00  0.00000000000E+00  0.12525980253E-10  0.17130000000E+03  0.17130000000E+03 0.  1.
       11    1    1    2    0    0 -0.84043793448E-02  0.81589512957E-02 -0.50547193021E-02  0.12767673480E-01  0.51109989000E-03 0. -1.
     -623    1    1    2    0    0 -0.88398704745E-02 -0.60897423187E-01  0.63638632699E-01  0.17130002287E+03  0.17130000000E+03 0.  1.
      622    1    1    2    0    0  0.17244249819E-01  0.52738471891E-01  0.39414160540E+01  0.39872094529E+01  0.60000000000E+00 0. -1.
</event>
<event>
 5   0  0.1014700E+04  0.9118800E+02  0.7818608E-02  0.1180000E+00
       11   -1    0    0    0    0  0.00000000000E+00  0.00000000000E+00  0.39999999673E+01  0.40000000000E+01  0.51109989000E-03 0. -1.
     -623   -1    0    0    0    0  0.00000000000E+00  0.00000000000E+00  0.12525980253E-10  0.17130000000E+03  0.17130000000E+03 0. -1.
       11    1    1    2    0    0  0.53493523345E-02 -0.18647916183E-01  0.59419384134E-02  0.20296014475E-01  0.51109989000E-03 0. -1.
     -623    1    1    2    0    0 -0.18766373075E-02  0.40493198726E-01  0.59921154895E-01  0.17130001528E+03  0.17130000000E+03 0. -1.
      622    1    1    2    0    0 -0.34727150270E-02 -0.21845282543E-01  0.39341368740E+01  0.39796887089E+01  0.60000000000E+00 0. -1.
</event>
<event>
 5   0  0.1014700E+04  0.9118800E+02  0.7818608E-02  0.1180000E+00
       11   -1    0    0    0    0  0.00000000000E+00  0.00000000000E+00  0.39999999673E+01  0.40000000000E+01  0.51109989000E-03 0. -1.
     -623   -1    0    0    0    0  0.00000000000E+00  0.00000000000E+00  0.12525980253E-10  0.17130000000E+03  0.17130000000E+03 0. -1.
       11    1    1    2    0    0  0.11438210444E-01  0.32218884941E-01  0.99826585638E-01  0.10552012902E+00  0.51109989000E-03 0. -1.
     -623    1    1    2    0    0 -0.37749365621E-01  0.53301223591E-01  0.53251749808E-01  0.17130002073E+03  0.17130000000E+03 0. -1.
      622    1    1    2    0    0  0.26311155176E-01 -0.85520108533E-01  0.38469216319E+01  0.38944591419E+01  0.60000000000E+00 0. -1.
</event>
<event>
 5   0  0.1014700E+04  0.9118800E+02  0.7818608E-02  0.1180000E+00
       11   -1    0    0    0    0  0.00000000000E+00  0.00000000000E+00  0.39999999673E+01  0.40000000000E+01  0.51109989000E-03 0. -1.
     -623   -1    0    0    0    0  0.00000000000E+00  0.00000000000E+00  0.12525980253E-10  0.17130000000E+03  0.17130000000E+03 0. -1.
       11    1    1    2    0    0  0.25320415253E-02  0.10282707694E-01  0.36867483263E-02  0.11224911943E-01  0.51109989000E-03 0. -1.
     -623    1    1    2    0    0 -0.45632662773E-02  0.92288345261E-03  0.52947749316E-01  0.17130000825E+03  0.17130000000E+03 0. -1.
      622    1    1    2    0    0  0.20312247519E-02 -0.11205591146E-01  0.39433654697E+01  0.39887668419E+01  0.60000000000E+00 0. -1.
</event>
<event>
 5   0  0.1014700E+04  0.9118800E+02  0.7818608E-02  0.1180000E+00
       11   -1    0    0    0    0  0.00000000000E+00  0.00000000000E+00  0.39999999673E+01  0.40000000000E+01  0.51109989000E-03 0.  1.
     -623   -1    0    0    0    0  0.00000000000E+00  0.00000000000E+00  0.12525980253E-10  0.17130000000E+03  0.17130000000E+03 0.  1.
       11    1    1    2    0    0  0.91436522486E-01 -0.27428539692E-01  0.21995795279E+00  0.23978057606E+00  0.51109989000E-03 0.  1.
     -623    1    1    2    0    0  0.50294531254E-03 -0.10119313535E+00  0.71414643164E-01  0.17130004478E+03  0.17130000000E+03 0.  1.
      622    1    1    2    0    0 -0.91939467799E-01  0.12862167504E+00  0.37086273714E+01  0.37601746477E+01  0.60000000000E+00 0.  0.
</event>
<event>
 5   0  0.1014700E+04  0.9118800E+02  0.7818608E-02  0.1180000E+00
       11   -1    0    0    0    0  0.00000000000E+00  0.00000000000E+00  0.39999999673E+01  0.40000000000E+01  0.51109989000E-03 0.  1.
     -623   -1    0    0    0    0  0.00000000000E+00  0.00000000000E+00  0.12525980253E-10  0.17130000000E+03  0.17130000000E+03 0. -1.
       11    1    1    2    0    0 -0.14932829539E+00 -0.14256228767E+00  0.99506009431E-01  0.22918257526E+00  0.51109989000E-03 0.  1.
     -623    1    1    2    0    0  0.37773576253E-01  0.14906762126E+00  0.17956033831E+00  0.17130016313E+03  0.17130000000E+03 0. -1.
      622    1    1    2    0    0  0.11155471914E+00 -0.65053335944E-02  0.37209336196E+01  0.37706542902E+01  0.60000000000E+00 0.  1.
</event>
<event>
 5   0  0.1014700E+04  0.9118800E+02  0.7818608E-02  0.1180000E+00
       11   -1    0    0    0    0  0.00000000000E+00  0.00000000000E+00  0.39999999673E+01  0.40000000000E+01  0.51109989000E-03 0. -1.
     -623   -1    0    0    0    0  0.00000000000E+00  0.00000000000E+00  0.12525980253E-10  0.17130000000E+03  0.17130000000E+03 0.  1.
       11    1    1    2    0    0 -0.34779396248E-01  0.10214511197E+00  0.21922366485E+00  0.24434096414E+00  0.51109989000E-03 0. -1.
     -623    1    1    2    0    0 -0.43149000307E-01 -0.13786929081E-01  0.75249935690E-01  0.17130002252E+03  0.17130000000E+03 0.  1.
      622    1    1    2    0    0  0.77928396555E-01 -0.88358182885E-01  0.37055263668E+01  0.37556365184E+01  0.60000000000E+00 0. -1.
</event>
<event>
 5   0  0.1014700E+04  0.9118800E+02  0.7818608E-02  0.1180000E+00
       11   -1    0    0    0    0  0.00000000000E+00  0.00000000000E+00  0.39999999673E+01  0.40000000000E+01  0.51109989000E-03 0.  1.
     -623   -1    0    0    0    0  0.00000000000E+00  0.00000000000E+00  0.12525980253E-10  0.17130000000E+03  0.17130000000E+03 0.  1.
       11    1    1    2    0    0 -0.23259603517E-02  0.96598152031E-02 -0.13988632810E-01  0.17165814580E-01  0.51109989000E-03 0.  1.
     -623    1    1    2    0    0  0.26877601740E-02 -0.10833476105E-01  0.76625621228E-01  0.17130001750E+03  0.17130000000E+03 0.  1.
      622    1    1    2    0    0 -0.36179982232E-03  0.11736609016E-02  0.39373629789E+01  0.39828166837E+01  0.60000000000E+00 0.  1.
</event>
<event>
 5   0  0.1014700E+04  0.9118800E+02  0.7818608E-02  0.1180000E+00
       11   -1    0    0    0    0  0.00000000000E+00  0.00000000000E+00  0.39999999673E+01  0.40000000000E+01  0.51109989000E-03 0.  1.
     -623   -1    0    0    0    0  0.00000000000E+00  0.00000000000E+00  0.12525980253E-10  0.17130000000E+03  0.17130000000E+03 0. -1.
       11    1    1    2    0    0 -0.67215030255E-01 -0.98847522827E-01  0.11736017070E+01  0.11796736502E+01  0.51109989000E-03 0.  1.
     -623    1    1    2    0    0 -0.65938435051E-01 -0.13018091819E+00  0.83481654560E-01  0.17130008250E+03  0.17130000000E+03 0. -1.
      622    1    1    2    0    0  0.13315346531E+00  0.22902844102E+00  0.27429166058E+01  0.28202438509E+01  0.60000000000E+00 0.  1.
</event>
<event>
 5   0  0.1014700E+04  0.9118800E+02  0.7818608E-02  0.1180000E+00
       11   -1    0    0    0    0  0.00000000000E+00  0.00000000000E+00  0.39999999673E+01  0.40000000000E+01  0.51109989000E-03 0. -1.
     -623   -1    0    0    0    0  0.00000000000E+00  0.00000000000E+00  0.12525980253E-10  0.17130000000E+03  0.17130000000E+03 0. -1.
       11    1    1    2    0    0 -0.50360831116E-01 -0.55200195777E-01  0.77748146549E-01  0.10783464396E+00  0.51109989000E-03 0. -1.
     -623    1    1    2    0    0  0.73016823021E-01  0.17712491942E+00  0.78738142230E-01  0.17130012523E+03  0.17130000000E+03 0. -1.
      622    1    1    2    0    0 -0.22655991906E-01 -0.12192472365E+00  0.38435136786E+01  0.38920401244E+01  0.60000000000E+00 0. -1.
</event>
<event>
 5   0  0.1014700E+04  0.9118800E+02  0.7818608E-02  0.1180000E+00
       11   -1    0    0    0    0  0.00000000000E+00  0.00000000000E+00  0.39999999673E+01  0.40000000000E+01  0.51109989000E-03 0. -1.
     -623   -1    0    0    0    0  0.00000000000E+00  0.00000000000E+00  0.12525980253E-10  0.17130000000E+03  0.17130000000E+03 0.  1.
       11    1    1    2    0    0  0.48405766635E-01 -0.11049452788E-01  0.21417429747E+00  0.21985472378E+00  0.51109989000E-03 0. -1.
     -623    1    1    2    0    0 -0.47280482082E-01 -0.36144678746E-01  0.53918993456E-01  0.17130001882E+03  0.17130000000E+03 0.  1.
      622    1    1    2    0    0 -0.11252845530E-02  0.47194131535E-01  0.37319066764E+01  0.37801264521E+01  0.60000000000E+00 0. -1.
</event>
<event>
 5   0  0.1014700E+04  0.9118800E+02  0.7818608E-02  0.1180000E+00
       11   -1    0    0    0    0  0.00000000000E+00  0.00000000000E+00  0.39999999673E+01  0.40000000000E+01  0.51109989000E-03 0. -1.
     -623   -1    0    0    0    0  0.00000000000E+00  0.00000000000E+00  0.12525980253E-10  0.17130000000E+03  0.17130000000E+03 0. -1.
       11    1    1    2    0    0  0.90520239648E-01 -0.17589875746E+00  0.36783370814E+00  0.41765558147E+00  0.51109989000E-03 0. -1.
     -623    1    1    2    0    0  0.86672066827E-02  0.27245724009E+00  0.10339134829E+00  0.17130024810E+03  0.17130000000E+03 0. -1.
      622    1    1    2    0    0 -0.99187446331E-01 -0.96558482630E-01  0.35287749109E+01  0.35820963223E+01  0.60000000000E+00 0. -1.
</event>
<event>
 5   0  0.1014700E+04  0.9118800E+02  0.7818608E-02  0.1180000E+00
       11   -1    0    0    0    0  0.00000000000E+00  0.00000000000E+00  0.39999999673E+01  0.40000000000E+01  0.51109989000E-03 0. -1.
     -623   -1    0    0    0    0  0.00000000000E+00  0.00000000000E+00  0.12525980253E-10  0.17130000000E+03  0.17130000000E+03 0. -1.
       11    1    1    2    0    0 -0.30796410196E-01 -0.31263819764E-01  0.74357114143E-01  0.86342845413E-01  0.51109989000E-03 0. -1.
     -623    1    1    2    0    0 -0.28280539958E-01  0.32254662166E-01  0.58718954218E-01  0.17130001544E+03  0.17130000000E+03 0. -1.
      622    1    1    2    0    0  0.59076950154E-01 -0.99084240128E-03  0.38669238990E+01  0.39136417195E+01  0.60000000000E+00 0. -1.
</event>
<event>
 5   0  0.1014700E+04  0.9118800E+02  0.7818608E-02  0.1180000E+00
       11   -1    0    0    0    0  0.00000000000E+00  0.00000000000E+00  0.39999999673E+01  0.40000000000E+01  0.51109989000E-03 0. -1.
     -623   -1    0    0    0    0  0.00000000000E+00  0.00000000000E+00  0.12525980253E-10  0.17130000000E+03  0.17130000000E+03 0.  1.
       11    1    1    2    0    0  0.54362324624E-01  0.22512860860E+00  0.11249415549E+01  0.11485346821E+01  0.51109989000E-03 0. -1.
     -623    1    1    2    0    0  0.83217334012E-01 -0.57947659870E-01  0.95912405413E-01  0.17130005687E+03  0.17130000000E+03 0.  1.
      622    1    1    2    0    0 -0.13757965864E+00 -0.16718094873E+00  0.27791460070E+01  0.28514084521E+01  0.60000000000E+00 0. -1.
</event>
<event>
 5   0  0.1014700E+04  0.9118800E+02  0.7818608E-02  0.1180000E+00
       11   -1    0    0    0    0  0.00000000000E+00  0.00000000000E+00  0.39999999673E+01  0.40000000000E+01  0.51109989000E-03 0. -1.
     -623   -1    0    0    0    0  0.00000000000E+00  0.00000000000E+00  0.12525980253E-10  0.17130000000E+03  0.17130000000E+03 0. -1.
       11    1    1    2    0    0  0.64354776328E-01 -0.55976989548E-01  0.27869118287E+00  0.29145153496E+00  0.51109989000E-03 0. -1.
     -623    1    1    2    0    0  0.11059119870E-01  0.65289912389E-01  0.62432124510E-01  0.17130002418E+03  0.17130000000E+03 0. -1.
      622    1    1    2    0    0 -0.75413896197E-01 -0.93129228408E-02  0.36588766600E+01  0.37085242886E+01  0.60000000000E+00 0. -1.
</event>
<event>
 5   0  0.1014700E+04  0.9118800E+02  0.7818608E-02  0.1180000E+00
       11   -1    0    0    0    0  0.00000000000E+00  0.00000000000E+00  0.39999999673E+01  0.40000000000E+01  0.51109989000E-03 0.  1.
     -623   -1    0    0    0    0  0.00000000000E+00  0.00000000000E+00  0.12525980253E-10  0.17130000000E+03  0.17130000000E+03 0. -1.
       11    1    1    2    0    0  0.26973540458E-01  0.12834802946E+00  0.39814641954E+00  0.41919162822E+00  0.51109989000E-03 0.  1.
     -623    1    1    2    0    0 -0.63509651394E-01 -0.93612352173E-03  0.74188522725E-01  0.17130002784E+03  0.17130000000E+03 0. -1.
      622    1    1    2    0    0  0.36536110935E-01 -0.12741190593E+00  0.35276650251E+01  0.35807805309E+01  0.60000000000E+00 0.  1.
</event>
<event>
 5   0  0.1014700E+04  0.9118800E+02  0.7818608E-02  0.1180000E+00
       11   -1    0    0    0    0  0.00000000000E+00  0.00000000000E+00  0.39999999673E+01  0.40000000000E+01  0.51109989000E-03 0.  1.
     -623   -1    0    0    0    0  0.00000000000E+00  0.00000000000E+00  0.12525980253E-10  0.17130000000E+03  0.17130000000E+03 0.  1.
       11    1    1    2    0    0  0.49520326217E-02 -0.65510023578E-02 -0.15632864515E-01  0.17665954040E-01  0.51109989000E-03 0.  1.
     -623    1    1    2    0    0  0.67057458263E-02  0.71814919773E-01  0.79350086502E-01  0.17130003356E+03  0.17130000000E+03 0.  1.
      622    1    1    2    0    0 -0.11657778448E-01 -0.65263917415E-01  0.39362827454E+01  0.39823004827E+01  0.60000000000E+00 0.  1.
</event>
<event>
 5   0  0.1014700E+04  0.9118800E+02  0.7818608E-02  0.1180000E+00
       11   -1    0    0    0    0  0.00000000000E+00  0.00000000000E+00  0.39999999673E+01  0.40000000000E+01  0.51109989000E-03 0. -1.
     -623   -1    0    0    0    0  0.00000000000E+00  0.00000000000E+00  0.12525980253E-10  0.17130000000E+03  0.17130000000E+03 0.  1.
       11    1    1    2    0    0  0.22984794606E-01  0.35138843258E-01  0.57983295133E-01  0.71591639359E-01  0.51109989000E-03 0. -1.
     -623    1    1    2    0    0 -0.15101323547E-01 -0.33788761121E-01  0.59721594531E-01  0.17130001441E+03  0.17130000000E+03 0.  1.
      622    1    1    2    0    0 -0.78834710599E-02 -0.13500821371E-02  0.38822950777E+01  0.39283939520E+01  0.60000000000E+00 0. -1.
</event>
<event>
 5   0  0.1014700E+04  0.9118800E+02  0.7818608E-02  0.1180000E+00
       11   -1    0    0    0    0  0.00000000000E+00  0.00000000000E+00  0.39999999673E+01  0.40000000000E+01  0.51109989000E-03 0. -1.
     -623   -1    0    0    0    0  0.00000000000E+00  0.00000000000E+00  0.12525980253E-10  0.17130000000E+03  0.17130000000E+03 0. -1.
       11    1    1    2    0    0  0.41473477638E-02 -0.87123796207E-02 -0.93360846694E-02  0.13436136059E-01  0.51109989000E-03 0. -1.
     -623    1    1    2    0    0  0.16484724478E-01  0.40515915006E-01  0.68384271516E-01  0.17130001923E+03  0.17130000000E+03 0. -1.
      622    1    1    2    0    0 -0.20632072242E-01 -0.31803535385E-01  0.39409517805E+01  0.39865446296E+01  0.60000000000E+00 0. -1.
</event>
<event>
 5   0  0.1014700E+04  0.9118800E+02  0.7818608E-02  0.1180000E+00
       11   -1    0    0    0    0  0.00000000000E+00  0.00000000000E+00  0.39999999673E+01  0.40000000000E+01  0.51109989000E-03 0. -1.
     -623   -1    0    0    0    0  0.00000000000E+00  0.00000000000E+00  0.12525980253E-10  0.17130000000E+03  0.17130000000E+03 0. -1.
       11    1    1    2    0    0  0.46136165410E-01  0.43107838959E-01  0.25055427324E+00  0.25838834455E+00  0.51109989000E-03 0. -1.
     -623    1    1    2    0    0 -0.40627098359E-01  0.25533515483E-01  0.56913398832E-01  0.17130001618E+03  0.17130000000E+03 0. -1.
      622    1    1    2    0    0 -0.55090670516E-02 -0.68641354442E-01  0.36925322953E+01  0.37415954802E+01  0.60000000000E+00 0. -1.
</event>
<event>
 5   0  0.1014700E+04  0.9118800E+02  0.7818608E-02  0.1180000E+00
       11   -1    0    0    0    0  0.00000000000E+00  0.00000000000E+00  0.39999999673E+01  0.40000000000E+01  0.51109989000E-03 0.  1.
     -623   -1    0    0    0    0  0.00000000000E+00  0.00000000000E+00  0.12525980253E-10  0.17130000000E+03  0.17130000000E+03 0.  1.
       11    1    1    2    0    0  0.18304565776E-01  0.47689259401E-01  0.21927700062E-01  0.55591436772E-01  0.51109989000E-03 0.  1.
     -623    1    1    2    0    0  0.56661844904E-02 -0.58356116607E-01  0.79682191645E-01  0.17130002857E+03  0.17130000000E+03 0.  1.
      622    1    1    2    0    0 -0.23970750266E-01  0.10666857205E-01  0.38983900757E+01  0.39443799970E+01  0.60000000000E+00 0.  1.
</event>
<event>
 5   0  0.1014700E+04  0.9118800E+02  0.7818608E-02  0.1180000E+00
       11   -1    0    0    0    0  0.00000000000E+00  0.00000000000E+00  0.39999999673E+01  0.40000000000E+01  0.51109989000E-03 0. -1.
     -623   -1    0    0    0    0  0.00000000000E+00  0.00000000000E+00  0.12525980253E-10  0.17130000000E+03  0.17130000000E+03 0. -1.
       11    1    1    2    0    0  0.20384381367E-01  0.25597982943E-01  0.32946729434E+00  0.33108871771E+00  0.51109989000E-03 0. -1.
     -623    1    1    2    0    0 -0.19211422627E-01 -0.59679104397E-01  0.51194780953E-01  0.17130001912E+03  0.17130000000E+03 0. -1.
      622    1    1    2    0    0 -0.11729587402E-02  0.34081121453E-01  0.36193378921E+01  0.36688921592E+01  0.60000000000E+00 0. -1.
</event>
<event>
 5   0  0.1014700E+04  0.9118800E+02  0.7818608E-02  0.1180000E+00
       11   -1    0    0    0    0  0.00000000000E+00  0.00000000000E+00  0.39999999673E+01  0.40000000000E+01  0.51109989000E-03 0.  1.
     -623   -1    0    0    0    0  0.00000000000E+00  0.00000000000E+00  0.12525980253E-10  0.17130000000E+03  0.17130000000E+03 0. -1.
       11    1    1    2    0    0  0.45619740487E-01 -0.17232121779E+00  0.37497375645E+00  0.41518832122E+00  0.51109989000E-03 0.  1.
     -623    1    1    2    0    0 -0.50495660391E-01  0.10588265747E+00  0.91476462247E-01  0.17130006459E+03  0.17130000000E+03 0. -1.
      622    1    1    2    0    0  0.48759199045E-02  0.66438560318E-01  0.35335497487E+01  0.35847470878E+01  0.60000000000E+00 0.  1.
</event>
<event>
 5   0  0.1014700E+04  0.9118800E+02  0.7818608E-02  0.1180000E+00
       11   -1    0    0    0    0  0.00000000000E+00  0.00000000000E+00  0.39999999673E+01  0.40000000000E+01  0.51109989000E-03 0.  1.
     -623   -1    0    0    0    0  0.00000000000E+00  0.00000000000E+00  0.12525980253E-10  0.17130000000E+03  0.17130000000E+03 0.  1.
       11    1    1    2    0    0 -0.43777200431E-01  0.16725926403E+00  0.24153883418E+00  0.29704103137E+00  0.51109989000E-03 0.  1.
     -623    1    1    2    0    0 -0.87292763413E-01 -0.10626989424E+00  0.10738622755E+00  0.17130008886E+03  0.17130000000E+03 0.  1.
      622    1    1    2    0    0  0.13106996384E+00 -0.60989369790E-01  0.36510749056E+01  0.37028701037E+01  0.60000000000E+00 0.  1.
</event>
<event>
 5   0  0.1014700E+04  0.9118800E+02  0.7818608E-02  0.1180000E+00
       11   -1    0    0    0    0  0.00000000000E+00  0.00000000000E+00  0.39999999673E+01  0.40000000000E+01  0.51109989000E-03 0.  1.
     -623   -1    0    0    0    0  0.00000000000E+00  0.00000000000E+00  0.12525980253E-10  0.17130000000E+03  0.17130000000E+03 0. -1.
       11    1    1    2    0    0  0.36533567041E-02  0.51777771122E-03 -0.13395048321E-02  0.39586115317E-02  0.51109989000E-03 0.  1.
     -623    1    1    2    0    0 -0.33094430901E-01  0.53998060624E-02  0.50724490639E-01  0.17130001079E+03  0.17130000000E+03 0. -1.
      622    1    1    2    0    0  0.29441074197E-01 -0.59175837736E-02  0.39506149816E+01  0.39960305964E+01  0.60000000000E+00 0.  1.
</event>
<event>
 5   0  0.1014700E+04  0.9118800E+02  0.7818608E-02  0.1180000E+00
       11   -1    0    0    0    0  0.00000000000E+00  0.00000000000E+00  0.39999999673E+01  0.40000000000E+01  0.51109989000E-03 0.  1.
     -623   -1    0    0    0    0  0.00000000000E+00  0.00000000000E+00  0.12525980253E-10  0.17130000000E+03  0.17130000000E+03 0.  1.
       11    1    1    2    0    0 -0.85840503018E-01 -0.56901126934E-01  0.11488123296E+00  0.15428638667E+00  0.51109989000E-03 0.  1.
     -623    1    1    2    0    0  0.47024847294E-01 -0.49932007783E-01  0.88236748512E-01  0.17130003646E+03  0.17130000000E+03 0.  1.
      622    1    1    2    0    0  0.38815655724E-01  0.10683313472E+00  0.37968819859E+01  0.38456771560E+01  0.60000000000E+00 0.  1.
</event>
<event>
 5   0  0.1014700E+04  0.9118800E+02  0.7818608E-02  0.1180000E+00
       11   -1    0    0    0    0  0.00000000000E+00  0.00000000000E+00  0.39999999673E+01  0.40000000000E+01  0.51109989000E-03 0. -1.
     -623   -1    0    0    0    0  0.00000000000E+00  0.00000000000E+00  0.12525980253E-10  0.17130000000E+03  0.17130000000E+03 0. -1.
       11    1    1    2    0    0  0.75844112589E-02 -0.23058624146E-01  0.93767713051E-01  0.96860046849E-01  0.51109989000E-03 0. -1.
     -623    1    1    2    0    0  0.13870862725E-01  0.32961423461E-01  0.49568154761E-01  0.17130001090E+03  0.17130000000E+03 0. -1.
      622    1    1    2    0    0 -0.21455273984E-01 -0.99027993147E-02  0.38566640995E+01  0.39031290487E+01  0.60000000000E+00 0. -1.
</event>
<event>
 5   0  0.1014700E+04  0.9118800E+02  0.7818608E-02  0.1180000E+00
       11   -1    0    0    0    0  0.00000000000E+00  0.00000000000E+00  0.39999999673E+01  0.40000000000E+01  0.51109989000E-03 0.  1.
     -623   -1    0    0    0    0  0.00000000000E+00  0.00000000000E+00  0.12525980253E-10  0.17130000000E+03  0.17130000000E+03 0. -1.
       11    1    1    2    0    0 -0.44737913946E-02 -0.94699697493E-01  0.26089228556E+00  0.27758438969E+00  0.51109989000E-03 0.  1.
     -623    1    1    2    0    0  0.12950600804E+00  0.73403607811E-01  0.67635163273E-01  0.17130007803E+03  0.17130000000E+03 0. -1.
      622    1    1    2    0    0 -0.12503221664E+00  0.21296089681E-01  0.36714725185E+01  0.37223375764E+01  0.60000000000E+00 0.  1.
</event>
<event>
 5   0  0.1014700E+04  0.9118800E+02  0.7818608E-02  0.1180000E+00
       11   -1    0    0    0    0  0.00000000000E+00  0.00000000000E+00  0.39999999673E+01  0.40000000000E+01  0.51109989000E-03 0. -1.
     -623   -1    0    0    0    0  0.00000000000E+00  0.00000000000E+00  0.12525980253E-10  0.17130000000E+03  0.17130000000E+03 0. -1.
       11    1    1    2    0    0  0.42996710374E-02 -0.15139191865E-01  0.11209118079E-01  0.19328420850E-01  0.51109989000E-03 0. -1.
     -623    1    1    2    0    0  0.75918997081E-03 -0.11476256412E-01  0.53699724226E-01  0.17130000880E+03  0.17130000000E+03 0. -1.
      622    1    1    2    0    0 -0.50588610082E-02  0.26615448277E-01  0.39350911251E+01  0.39806627761E+01  0.60000000000E+00 0. -1.
</event>
<event>
 5   0  0.1014700E+04  0.9118800E+02  0.7818608E-02  0.1180000E+00
       11   -1    0    0    0    0  0.00000000000E+00  0.00000000000E+00  0.39999999673E+01  0.40000000000E+01  0.51109989000E-03 0.  1.
     -623   -1    0    0    0    0  0.00000000000E+00  0.00000000000E+00  0.12525980253E-10  0.17130000000E+03  0.17130000000E+03 0. -1.
       11    1    1    2    0    0  0.96556330128E-03 -0.40163930336E-02 -0.19156729547E-02  0.45820029961E-02  0.51109989000E-03 0.  1.
     -623    1    1    2    0    0  0.29079393977E-01  0.15661397407E-01  0.51948769930E-01  0.17130001106E+03  0.17130000000E+03 0. -1.
      622    1    1    2    0    0 -0.30044957278E-01 -0.11645004374E-01  0.39499668704E+01  0.39954069358E+01  0.60000000000E+00 0.  1.
</event>
<event>
 5   0  0.1014700E+04  0.9118800E+02  0.7818608E-02  0.1180000E+00
       11   -1    0    0    0    0  0.00000000000E+00  0.00000000000E+00  0.39999999673E+01  0.40000000000E+01  0.51109989000E-03 0.  1.
     -623   -1    0    0    0    0  0.00000000000E+00  0.00000000000E+00  0.12525980253E-10  0.17130000000E+03  0.17130000000E+03 0.  1.
       11    1    1    2    0    0  0.12777259966E+00 -0.87547497682E-01  0.42949670704E+00  0.45657210181E+00  0.51109989000E-03 0.  1.
     -623    1    1    2    0    0 -0.16571639857E+00  0.45388619031E-01  0.78809541999E-01  0.17130010430E+03  0.17130000000E+03 0.  1.
      622    1    1    2    0    0  0.37943798908E-01  0.42158878651E-01  0.34916937183E+01  0.35433235988E+01  0.60000000000E+00 0.  1.
</event>
<event>
 5   0  0.1014700E+04  0.9118800E+02  0.7818608E-02  0.1180000E+00
       11   -1    0    0    0    0  0.00000000000E+00  0.00000000000E+00  0.39999999673E+01  0.40000000000E+01  0.51109989000E-03 0. -1.
     -623   -1    0    0    0    0  0.00000000000E+00  0.00000000000E+00  0.12525980253E-10  0.17130000000E+03  0.17130000000E+03 0. -1.
       11    1    1    2    0    0  0.63761655886E-01 -0.45190789952E-01  0.29278901403E+00  0.30304030130E+00  0.51109989000E-03 0. -1.
     -623    1    1    2    0    0  0.24770491428E-01  0.74912475446E-01  0.60489635381E-01  0.17130002885E+03  0.17130000000E+03 0. -1.
      622    1    1    2    0    0 -0.88532147314E-01 -0.29721685495E-01  0.36467213180E+01  0.36969308474E+01  0.60000000000E+00 0. -1.
</event>
<event>
 5   0  0.1014700E+04  0.9118800E+02  0.7818608E-02  0.1180000E+00
       11   -1    0    0    0    0  0.00000000000E+00  0.00000000000E+00  0.39999999673E+01  0.40000000000E+01  0.51109989000E-03 0. -1.
     -623   -1    0    0    0    0  0.00000000000E+00  0.00000000000E+00  0.12525980253E-10  0.17130000000E+03  0.17130000000E+03 0.  1.
       11    1    1    2    0    0  0.51442618512E-01 -0.44492645473E-01  0.19024855934E+00  0.20204136718E+00  0.51109989000E-03 0. -1.
     -623    1    1    2    0    0 -0.18873289727E-01 -0.12907822086E-01  0.60079077954E-01  0.17130001206E+03  0.17130000000E+03 0.  1.
      622    1    1    2    0    0 -0.32569328784E-01  0.57400467559E-01  0.37496723301E+01  0.37979465712E+01  0.60000000000E+00 0. -1.
</event>
<event>
 5   0  0.1014700E+04  0.9118800E+02  0.7818608E-02  0.1180000E+00
       11   -1    0    0    0    0  0.00000000000E+00  0.00000000000E+00  0.39999999673E+01  0.40000000000E+01  0.51109989000E-03 0.  1.
     -623   -1    0    0    0    0  0.00000000000E+00  0.00000000000E+00  0.12525980253E-10  0.17130000000E+03  0.17130000000E+03 0. -1.
       11    1    1    2    0    0 -0.17372592567E+00 -0.71060441726E-01  0.12430811129E+00  0.22512896612E+00  0.51109989000E-03 0.  1.
     -623    1    1    2    0    0  0.25100820879E+00  0.53509670947E-01  0.14991354262E+00  0.17130025786E+03  0.17130000000E+03 0. -1.
      622    1    1    2    0    0 -0.77282283112E-01  0.17550770779E-01  0.37257783135E+01  0.37746131751E+01  0.60000000000E+00 0.  1.
</event>
<event>
 5   0  0.1014700E+04  0.9118800E+02  0.7818608E-02  0.1180000E+00
       11   -1    0    0    0    0  0.00000000000E+00  0.00000000000E+00  0.39999999673E+01  0.40000000000E+01  0.51109989000E-03 0. -1.
     -623   -1    0    0    0    0  0.00000000000E+00  0.00000000000E+00  0.12525980253E-10  0.17130000000E+03  0.17130000000E+03 0. -1.
       11    1    1    2    0    0  0.75810969614E-02  0.73892387447E-01  0.55377050031E-01  0.92652236061E-01  0.51109989000E-03 0. -1.
     -623    1    1    2    0    0  0.22813114479E-01 -0.18166371831E-01  0.84162273369E-01  0.17130002316E+03  0.17130000000E+03 0. -1.
      622    1    1    2    0    0 -0.30394211441E-01 -0.55726015617E-01  0.38604606440E+01  0.39073246065E+01  0.60000000000E+00 0. -1.
</event>
<event>
 5   0  0.1014700E+04  0.9118800E+02  0.7818608E-02  0.1180000E+00
       11   -1    0    0    0    0  0.00000000000E+00  0.00000000000E+00  0.39999999673E+01  0.40000000000E+01  0.51109989000E-03 0. -1.
     -623   -1    0    0    0    0  0.00000000000E+00  0.00000000000E+00  0.12525980253E-10  0.17130000000E+03  0.17130000000E+03 0. -1.
       11    1    1    2    0    0  0.22723177308E-01 -0.25666881020E-02  0.15477717196E-01  0.27617958396E-01  0.51109989000E-03 0. -1.
     -623    1    1    2    0    0 -0.47262134797E-01  0.40066376676E-01  0.57991505947E-01  0.17130002102E+03  0.17130000000E+03 0. -1.
      622    1    1    2    0    0  0.24538957490E-01 -0.37499688574E-01  0.39265307442E+01  0.39723610199E+01  0.60000000000E+00 0. -1.
</event>
<event>
 5   0  0.1014700E+04  0.9118800E+02  0.7818608E-02  0.1180000E+00
       11   -1    0    0    0    0  0.00000000000E+00  0.00000000000E+00  0.39999999673E+01  0.40000000000E+01  0.51109989000E-03 0.  1.
     -623   -1    0    0    0    0  0.00000000000E+00  0.00000000000E+00  0.12525980253E-10  0.17130000000E+03  0.17130000000E+03 0.  1.
       11    1    1    2    0    0  0.16025026401E-01  0.14119727319E+00  0.30466004228E+00  0.33617179241E+00  0.51109989000E-03 0.  1.
     -623    1    1    2    0    0 -0.76050920504E-02 -0.14596065341E+00  0.81070140144E-01  0.17130008154E+03  0.17130000000E+03 0.  1.
      622    1    1    2    0    0 -0.84199343509E-02  0.47633802264E-02  0.36142697849E+01  0.36637466702E+01  0.60000000000E+00 0.  1.
</event>
<event>
 5   0  0.1014700E+04  0.9118800E+02  0.7818608E-02  0.1180000E+00
       11   -1    0    0    0    0  0.00000000000E+00  0.00000000000E+00  0.39999999673E+01  0.40000000000E+01  0.51109989000E-03 0.  1.
     -623   -1    0    0    0    0  0.00000000000E+00  0.00000000000E+00  0.12525980253E-10  0.17130000000E+03  0.17130000000E+03 0.  1.
       11    1    1    2    0    0  0.50955052642E-02  0.40403160192E-01  0.44658218078E-01  0.60440029719E-01  0.51109989000E-03 0.  1.
     -623    1    1    2    0    0  0.33618714518E-01 -0.25820408207E-01  0.61976668917E-01  0.17130001646E+03  0.17130000000E+03 0.  1.
      622    1    1    2    0    0 -0.38714219783E-01 -0.14582751985E-01  0.38933650804E+01  0.39395435137E+01  0.60000000000E+00 0.  1.
</event>
<event>
 5   0  0.1014700E+04  0.9118800E+02  0.7818608E-02  0.1180000E+00
       11   -1    0    0    0    0  0.00000000000E+00  0.00000000000E+00  0.39999999673E+01  0.40000000000E+01  0.51109989000E-03 0.  1.
     -623   -1    0    0    0    0  0.00000000000E+00  0.00000000000E+00  0.12525980253E-10  0.17130000000E+03  0.17130000000E+03 0.  1.
       11    1    1    2    0    0  0.20020721992E-01  0.12215454098E-01  0.49085935009E-01  0.54403463738E-01  0.51109989000E-03 0.  1.
     -623    1    1    2    0    0  0.36671109865E-01  0.53822608898E-01  0.52196732406E-01  0.17130002033E+03  0.17130000000E+03 0.  1.
      622    1    1    2    0    0 -0.56691831857E-01 -0.66038062997E-01  0.38987172999E+01  0.39455762031E+01  0.60000000000E+00 0.  1.
</event>
<event>
 5   0  0.1014700E+04  0.9118800E+02  0.7818608E-02  0.1180000E+00
       11   -1    0    0    0    0  0.00000000000E+00  0.00000000000E+00  0.39999999673E+01  0.40000000000E+01  0.51109989000E-03 0. -1.
     -623   -1    0    0    0    0  0.00000000000E+00  0.00000000000E+00  0.12525980253E-10  0.17130000000E+03  0.17130000000E+03 0. -1.
       11    1    1    2    0    0 -0.46440812505E-01  0.73247019558E-01  0.24906511955E+00  0.26373389987E+00  0.51109989000E-03 0. -1.
     -623    1    1    2    0    0  0.42713690691E-01 -0.31399918785E-01  0.63419386655E-01  0.17130001994E+03  0.17130000000E+03 0. -1.
      622    1    1    2    0    0  0.37271218140E-02 -0.41847100773E-01  0.36875154612E+01  0.37362461573E+01  0.60000000000E+00 0. -1.
</event>
<event>
 5   0  0.1014700E+04  0.9118800E+02  0.7818608E-02  0.1180000E+00
       11   -1    0    0    0    0  0.00000000000E+00  0.00000000000E+00  0.39999999673E+01  0.40000000000E+01  0.51109989000E-03 0.  1.
     -623   -1    0    0    0    0  0.00000000000E+00  0.00000000000E+00  0.12525980253E-10  0.17130000000E+03  0.17130000000E+03 0. -1.
       11    1    1    2    0    0  0.51189402697E-02 -0.32738800964E-01  0.28937509632E+00  0.29126661365E+00  0.51109989000E-03 0.  1.
     -623    1    1    2    0    0 -0.47572576668E-01 -0.80748936505E-02  0.51235848651E-01  0.17130001446E+03  0.17130000000E+03 0. -1.
      622    1    1    2    0    0  0.42453636399E-01  0.40813694615E-01  0.36593890224E+01  0.37087189279E+01  0.60000000000E+00 0.  1.
</event>
<event>
 5   0  0.1014700E+04  0.9118800E+02  0.7818608E-02  0.1180000E+00
       11   -1    0    0    0    0  0.00000000000E+00  0.00000000000E+00  0.39999999673E+01  0.40000000000E+01  0.51109989000E-03 0.  1.
     -623   -1    0    0    0    0  0.00000000000E+00  0.00000000000E+00  0.12525980253E-10  0.17130000000E+03  0.17130000000E+03 0. -1.
       11    1    1    2    0    0  0.15530423897E+00 -0.79253013101E-01  0.29077544862E+00  0.33904434735E+00  0.51109989000E-03 0.  1.
     -623    1    1    2    0    0  0.12328241025E+00  0.43094872008E-01  0.10879942229E+00  0.17130008433E+03  0.17130000000E+03 0. -1.
      622    1    1    2    0    0 -0.27858664922E+00  0.36158141092E-01  0.36004250964E+01  0.36608713181E+01  0.60000000000E+00 0.  1.
</event>
<event>
 5   0  0.1014700E+04  0.9118800E+02  0.7818608E-02  0.1180000E+00
       11   -1    0    0    0    0  0.00000000000E+00  0.00000000000E+00  0.39999999673E+01  0.40000000000E+01  0.51109989000E-03 0. -1.
     -623   -1    0    0    0    0  0.00000000000E+00  0.00000000000E+00  0.12525980253E-10  0.17130000000E+03  0.17130000000E+03 0.  1.
       11    1    1    2    0    0  0.53998214468E-01 -0.67428268038E-01  0.27168823395E+00  0.28509145232E+00  0.51109989000E-03 0. -1.
     -623    1    1    2    0    0 -0.80877483101E-01  0.14923612466E-01  0.62682948397E-01  0.17130003121E+03  0.17130000000E+03 0.  1.
      622    1    1    2    0    0  0.26879268633E-01  0.52504655573E-01  0.36656287850E+01  0.37148773363E+01  0.60000000000E+00 0. -1.
</event>
<event>
 5   0  0.1014700E+04  0.9118800E+02  0.7818608E-02  0.1180000E+00
       11   -1    0    0    0    0  0.00000000000E+00  0.00000000000E+00  0.39999999673E+01  0.40000000000E+01  0.51109989000E-03 0.  1.
     -623   -1    0    0    0    0  0.00000000000E+00  0.00000000000E+00  0.12525980253E-10  0.17130000000E+03  0.17130000000E+03 0. -1.
       11    1    1    2    0    0 -0.24724384291E-01 -0.53830569916E-01  0.48800686146E-01  0.76751505687E-01  0.51109989000E-03 0.  1.
     -623    1    1    2    0    0  0.59916874197E-01  0.61746191433E-01  0.74308571304E-01  0.17130003772E+03  0.17130000000E+03 0. -1.
      622    1    1    2    0    0 -0.35192489906E-01 -0.79156215174E-02  0.38768907099E+01  0.39232107699E+01  0.60000000000E+00 0.  1.
</event>
<event>
 5   0  0.1014700E+04  0.9118800E+02  0.7818608E-02  0.1180000E+00
       11   -1    0    0    0    0  0.00000000000E+00  0.00000000000E+00  0.39999999673E+01  0.40000000000E+01  0.51109989000E-03 0. -1.
     -623   -1    0    0    0    0  0.00000000000E+00  0.00000000000E+00  0.12525980253E-10  0.17130000000E+03  0.17130000000E+03 0.  1.
       11    1    1    2    0    0  0.12664781820E-01  0.72199960016E-02  0.50761583930E-01  0.52815950876E-01  0.51109989000E-03 0. -1.
     -623    1    1    2    0    0  0.32040589924E-01  0.24190993692E-01  0.48317240523E-01  0.17130001152E+03  0.17130000000E+03 0.  1.
      622    1    1    2    0    0 -0.44705371744E-01 -0.31410989694E-01  0.39009211429E+01  0.39471725303E+01  0.60000000000E+00 0.  0.
</event>
<event>
 5   0  0.1014700E+04  0.9118800E+02  0.7818608E-02  0.1180000E+00
       11   -1    0    0    0    0  0.00000000000E+00  0.00000000000E+00  0.39999999673E+01  0.40000000000E+01  0.51109989000E-03 0.  1.
     -623   -1    0    0    0    0  0.00000000000E+00  0.00000000000E+00  0.12525980253E-10  0.17130000000E+03  0.17130000000E+03 0. -1.
       11    1    1    2    0    0 -0.91530368466E-02  0.61682884580E-02  0.86450945973E-02  0.14029424353E-01  0.51109989000E-03 0.  1.
     -623    1    1    2    0    0  0.30086173370E-01  0.16508885930E-01  0.50933421869E-01  0.17130001101E+03  0.17130000000E+03 0. -1.
      622    1    1    2    0    0 -0.20933136523E-01 -0.22677174388E-01  0.39404214509E+01  0.39859595659E+01  0.60000000000E+00 0.  1.
</event>
<event>
 5   0  0.1014700E+04  0.9118800E+02  0.7818608E-02  0.1180000E+00
       11   -1    0    0    0    0  0.00000000000E+00  0.00000000000E+00  0.39999999673E+01  0.40000000000E+01  0.51109989000E-03 0.  1.
     -623   -1    0    0    0    0  0.00000000000E+00  0.00000000000E+00  0.12525980253E-10  0.17130000000E+03  0.17130000000E+03 0.  1.
       11    1    1    2    0    0 -0.56219574419E-01  0.41983578899E-01  0.65950272563E-01  0.96296215499E-01  0.51109989000E-03 0.  1.
     -623    1    1    2    0    0 -0.48658896567E-02 -0.86273176829E-01  0.77509383673E-01  0.17130003933E+03  0.17130000000E+03 0.  1.
      622    1    1    2    0    0  0.61085464076E-01  0.44289597930E-01  0.38565403111E+01  0.39036644546E+01  0.60000000000E+00 0.  1.
</event>
<event>
 5   0  0.1014700E+04  0.9118800E+02  0.7818608E-02  0.1180000E+00
       11   -1    0    0    0    0  0.00000000000E+00  0.00000000000E+00  0.39999999673E+01  0.40000000000E+01  0.51109989000E-03 0.  1.
     -623   -1    0    0    0    0  0.00000000000E+00  0.00000000000E+00  0.12525980253E-10  0.17130000000E+03  0.17130000000E+03 0.  1.
       11    1    1    2    0    0  0.41339245081E-01 -0.12711837753E-01 -0.66076374647E-03  0.43257621696E-01  0.51109989000E-03 0.  1.
     -623    1    1    2    0    0 -0.82723869514E-01  0.34343765519E-01  0.90001296989E-01  0.17130004706E+03  0.17130000000E+03 0.  1.
      622    1    1    2    0    0  0.41384624432E-01 -0.21631927766E-01  0.39106594341E+01  0.39566953177E+01  0.60000000000E+00 0.  1.
</event>
<event>
 5   0  0.1014700E+04  0.9118800E+02  0.7818608E-02  0.1180000E+00
       11   -1    0    0    0    0  0.00000000000E+00  0.00000000000E+00  0.39999999673E+01  0.40000000000E+01  0.51109989000E-03 0. -1.
     -623   -1    0    0    0    0  0.00000000000E+00  0.00000000000E+00  0.12525980253E-10  0.17130000000E+03  0.17130000000E+03 0. -1.
       11    1    1    2    0    0  0.16763630883E-01  0.33967587173E-01  0.16905829362E-01  0.41483545994E-01  0.51109989000E-03 0. -1.
     -623    1    1    2    0    0 -0.22512109630E-01  0.10993811024E-01  0.70592600314E-01  0.17130001638E+03  0.17130000000E+03 0. -1.
      622    1    1    2    0    0  0.57484787466E-02 -0.44961398197E-01  0.39125015377E+01  0.39585000764E+01  0.60000000000E+00 0. -1.
</event>
<event>
 5   0  0.1014700E+04  0.9118800E+02  0.7818608E-02  0.1180000E+00
       11   -1    0    0    0    0  0.00000000000E+00  0.00000000000E+00  0.39999999673E+01  0.40000000000E+01  0.51109989000E-03 0.  1.
     -623   -1    0    0    0    0  0.00000000000E+00  0.00000000000E+00  0.12525980253E-10  0.17130000000E+03  0.17130000000E+03 0. -1.
       11    1    1    2    0    0  0.14220009358E+00 -0.29895758796E+00  0.83090492644E+00  0.89442705908E+00  0.51109989000E-03 0.  1.
     -623    1    1    2    0    0 -0.38599194481E+00  0.55107566742E+00  0.14370148999E+00  0.17130138156E+03  0.17130000000E+03 0. -1.
      622    1    1    2    0    0  0.24379185123E+00 -0.25211807946E+00  0.30253935509E+01  0.31041913811E+01  0.60000000000E+00 0.  1.
</event>
<event>
 5   0  0.1014700E+04  0.9118800E+02  0.7818608E-02  0.1180000E+00
       11   -1    0    0    0    0  0.00000000000E+00  0.00000000000E+00  0.39999999673E+01  0.40000000000E+01  0.51109989000E-03 0. -1.
     -623   -1    0    0    0    0  0.00000000000E+00  0.00000000000E+00  0.12525980253E-10  0.17130000000E+03  0.17130000000E+03 0.  1.
       11    1    1    2    0    0 -0.96921606829E-01  0.96632544983E-01  0.18518699989E+00  0.23027403843E+00  0.51109989000E-03 0. -1.
     -623    1    1    2    0    0 -0.85299970475E-01  0.54548472967E-01  0.10074182118E+00  0.17130005955E+03  0.17130000000E+03 0.  1.
      622    1    1    2    0    0  0.18222157730E+00 -0.15118101795E+00  0.37140711463E+01  0.37696664154E+01  0.60000000000E+00 0. -1.
</event>
<event>
 5   0  0.1014700E+04  0.9118800E+02  0.7818608E-02  0.1180000E+00
       11   -1    0    0    0    0  0.00000000000E+00  0.00000000000E+00  0.39999999673E+01  0.40000000000E+01  0.51109989000E-03 0. -1.
     -623   -1    0    0    0    0  0.00000000000E+00  0.00000000000E+00  0.12525980253E-10  0.17130000000E+03  0.17130000000E+03 0.  1.
       11    1    1    2    0    0 -0.14270413830E+00  0.42727278801E-01  0.39704617145E+00  0.42407076641E+00  0.51109989000E-03 0. -1.
     -623    1    1    2    0    0  0.83747253931E-02 -0.12334040746E+00  0.81268103908E-01  0.17130006389E+03  0.17130000000E+03 0.  1.
      622    1    1    2    0    0  0.13432941291E+00  0.80613128658E-01  0.35216856920E+01  0.35758653471E+01  0.60000000000E+00 0.  1.
</event>
<event>
 5   0  0.1014700E+04  0.9118800E+02  0.7818608E-02  0.1180000E+00
       11   -1    0    0    0    0  0.00000000000E+00  0.00000000000E+00  0.39999999673E+01  0.40000000000E+01  0.51109989000E-03 0. -1.
     -623   -1    0    0    0    0  0.00000000000E+00  0.00000000000E+00  0.12525980253E-10  0.17130000000E+03  0.17130000000E+03 0.  1.
       11    1    1    2    0    0  0.28283028955E-01  0.14382153307E-01  0.13813490202E-01  0.34609966704E-01  0.51109989000E-03 0. -1.
     -623    1    1    2    0    0  0.36026409903E-01 -0.31307992718E-01  0.67036165383E-01  0.17130001977E+03  0.17130000000E+03 0.  1.
      622    1    1    2    0    0 -0.64309438858E-01  0.16925839411E-01  0.39191503118E+01  0.39653702670E+01  0.60000000000E+00 0. -1.
</event>
<event>
 5   0  0.1014700E+04  0.9118800E+02  0.7818608E-02  0.1180000E+00
       11   -1    0    0    0    0  0.00000000000E+00  0.00000000000E+00  0.39999999673E+01  0.40000000000E+01  0.51109989000E-03 0.  1.
     -623   -1    0    0    0    0  0.00000000000E+00  0.00000000000E+00  0.12525980253E-10  0.17130000000E+03  0.17130000000E+03 0. -1.
       11    1    1    2    0    0  0.67259589100E-02 -0.13824635771E-02 -0.19438721083E-02  0.71546901172E-02  0.51109989000E-03 0.  1.
     -623    1    1    2    0    0 -0.11522080726E+00 -0.77083489440E-02  0.55986921252E-01  0.17130004807E+03  0.17130000000E+03 0. -1.
      622    1    1    2    0    0  0.10849484835E+00  0.90908125211E-02  0.39459569182E+01  0.39927972369E+01  0.60000000000E+00 0.  1.
</event>
<event>
 5   0  0.1014700E+04  0.9118800E+02  0.7818608E-02  0.1180000E+00
       11   -1    0    0    0    0  0.00000000000E+00  0.00000000000E+00  0.39999999673E+01  0.40000000000E+01  0.51109989000E-03 0. -1.
     -623   -1    0    0    0    0  0.00000000000E+00  0.00000000000E+00  0.12525980253E-10  0.17130000000E+03  0.17130000000E+03 0.  1.
       11    1    1    2    0    0  0.13678681819E-01 -0.15644952510E-01  0.14590877951E-01  0.25397358482E-01  0.51109989000E-03 0. -1.
     -623    1    1    2    0    0 -0.15621065524E-01 -0.65432254384E-02  0.56428364845E-01  0.17130001013E+03  0.17130000000E+03 0.  1.
      622    1    1    2    0    0  0.19423837054E-02  0.22188177949E-01  0.39289807246E+01  0.39745925102E+01  0.60000000000E+00 0. -1.
</event>
<event>
 5   0  0.1014700E+04  0.9118800E+02  0.7818608E-02  0.1180000E+00
       11   -1    0    0    0    0  0.00000000000E+00  0.00000000000E+00  0.39999999673E+01  0.40000000000E+01  0.51109989000E-03 0. -1.
     -623   -1    0    0    0    0  0.00000000000E+00  0.00000000000E+00  0.12525980253E-10  0.17130000000E+03  0.17130000000E+03 0.  1.
       11    1    1    2    0    0  0.21849489143E+00  0.18559901534E+00  0.80885204366E+00  0.85815435781E+00  0.51109989000E-03 0. -1.
     -623    1    1    2    0    0 -0.28010537782E-01 -0.23904929655E+00  0.11368901929E+00  0.17130020681E+03  0.17130000000E+03 0.  1.
      622    1    1    2    0    0 -0.19048435365E+00  0.53450281210E-01  0.30774589044E+01  0.31416388287E+01  0.60000000000E+00 0. -1.
</event>
<event>
 5   0  0.1014700E+04  0.9118800E+02  0.7818608E-02  0.1180000E+00
       11   -1    0    0    0    0  0.00000000000E+00  0.00000000000E+00  0.39999999673E+01  0.40000000000E+01  0.51109989000E-03 0.  1.
     -623   -1    0    0    0    0  0.00000000000E+00  0.00000000000E+00  0.12525980253E-10  0.17130000000E+03  0.17130000000E+03 0.  1.
       11    1    1    2    0    0 -0.71146084241E-01 -0.48371545490E-01  0.29607714347E+00  0.30832370623E+00  0.51109989000E-03 0.  1.
     -623    1    1    2    0    0  0.52804006040E-01 -0.86169629554E-01  0.63905244425E-01  0.17130004173E+03  0.17130000000E+03 0.  1.
      622    1    1    2    0    0  0.18342078201E-01  0.13454117504E+00  0.36400175795E+01  0.36916345619E+01  0.60000000000E+00 0.  1.
</event>
<event>
 5   0  0.1014700E+04  0.9118800E+02  0.7818608E-02  0.1180000E+00
       11   -1    0    0    0    0  0.00000000000E+00  0.00000000000E+00  0.39999999673E+01  0.40000000000E+01  0.51109989000E-03 0.  1.
     -623   -1    0    0    0    0  0.00000000000E+00  0.00000000000E+00  0.12525980253E-10  0.17130000000E+03  0.17130000000E+03 0. -1.
       11    1    1    2    0    0  0.46167268711E-01  0.36192533719E-01  0.90690668523E-01  0.10801099377E+00  0.51109989000E-03 0.  1.
     -623    1    1    2    0    0 -0.49845206892E-01 -0.72642650976E-01  0.64056808268E-01  0.17130003463E+03  0.17130000000E+03 0. -1.
      622    1    1    2    0    0  0.36779381807E-02  0.36450117257E-01  0.38452524906E+01  0.38919543747E+01  0.60000000000E+00 0.  1.
</event>
<event>
 5   0  0.1014700E+04  0.9118800E+02  0.7818608E-02  0.1180000E+00
       11   -1    0    0    0    0  0.00000000000E+00  0.00000000000E+00  0.39999999673E+01  0.40000000000E+01  0.51109989000E-03 0.  1.
     -623   -1    0    0    0    0  0.00000000000E+00  0.00000000000E+00  0.12525980253E-10  0.17130000000E+03  0.17130000000E+03 0. -1.
       11    1    1    2    0    0  0.47429469106E-01  0.11671692450E+00  0.32573341920E+00  0.34924907532E+00  0.51109989000E-03 0.  1.
     -623    1    1    2    0    0  0.59897908948E-01 -0.61849302761E-01  0.75214709426E-01  0.17130003815E+03  0.17130000000E+03 0. -1.
      622    1    1    2    0    0 -0.10732737805E+00 -0.54867621734E-01  0.35990518387E+01  0.36507127742E+01  0.60000000000E+00 0.  1.
</event>
<event>
 5   0  0.1014700E+04  0.9118800E+02  0.7818608E-02  0.1180000E+00
       11   -1    0    0    0    0  0.00000000000E+00  0.00000000000E+00  0.39999999673E+01  0.40000000000E+01  0.51109989000E-03 0. -1.
     -623   -1    0    0    0    0  0.00000000000E+00  0.00000000000E+00  0.12525980253E-10  0.17130000000E+03  0.17130000000E+03 0. -1.
       11    1    1    2    0    0  0.12449654342E+00  0.85636263342E-01  0.49404146720E+00  0.51663351755E+00  0.51109989000E-03 0. -1.
     -623    1    1    2    0    0  0.38922622822E-01 -0.17584966273E+00  0.79851599134E-01  0.17130011329E+03  0.17130000000E+03 0. -1.
      622    1    1    2    0    0 -0.16341916625E+00  0.90213399392E-01  0.34261069010E+01  0.34832531890E+01  0.60000000000E+00 0. -1.
</event>
<event>
 5   0  0.1014700E+04  0.9118800E+02  0.7818608E-02  0.1180000E+00
       11   -1    0    0    0    0  0.00000000000E+00  0.00000000000E+00  0.39999999673E+01  0.40000000000E+01  0.51109989000E-03 0.  1.
     -623   -1    0    0    0    0  0.00000000000E+00  0.00000000000E+00  0.12525980253E-10  0.17130000000E+03  0.17130000000E+03 0. -1.
       11    1    1    2    0    0 -0.81904636974E-01  0.52386018943E-01  0.25581658075E+00  0.27366959777E+00  0.51109989000E-03 0.  1.
     -623    1    1    2    0    0  0.33536080991E-01 -0.40157793616E-01  0.66834816599E-01  0.17130002103E+03  0.17130000000E+03 0. -1.
      622    1    1    2    0    0  0.48368555983E-01 -0.12228225327E-01  0.36773485700E+01  0.37263093742E+01  0.60000000000E+00 0.  1.
</event>
<event>
 5   0  0.1014700E+04  0.9118800E+02  0.7818608E-02  0.1180000E+00
       11   -1    0    0    0    0  0.00000000000E+00  0.00000000000E+00  0.39999999673E+01  0.40000000000E+01  0.51109989000E-03 0.  1.
     -623   -1    0    0    0    0  0.00000000000E+00  0.00000000000E+00  0.12525980253E-10  0.17130000000E+03  0.17130000000E+03 0. -1.
       11    1    1    2    0    0 -0.82035254098E-01  0.34732591641E-01  0.28727463189E-01  0.93603761684E-01  0.51109989000E-03 0.  1.
     -623    1    1    2    0    0  0.73910987301E-01 -0.41833094264E-01  0.11130253515E+00  0.17130005721E+03  0.17130000000E+03 0. -1.
      622    1    1    2    0    0  0.81242667968E-02  0.71005026233E-02  0.38599699690E+01  0.39063390256E+01  0.60000000000E+00 0.  1.
</event>
<event>
 5   0  0.1014700E+04  0.9118800E+02  0.7818608E-02  0.1180000E+00
       11   -1    0    0    0    0  0.00000000000E+00  0.00000000000E+00  0.39999999673E+01  0.40000000000E+01  0.51109989000E-03 0. -1.
     -623   -1    0    0    0    0  0.00000000000E+00  0.00000000000E+00  0.12525980253E-10  0.17130000000E+03  0.17130000000E+03 0. -1.
       11    1    1    2    0    0 -0.12545371282E-01 -0.32627143039E-01  0.24457776500E+00  0.24706367835E+00  0.51109989000E-03 0. -1.
     -623    1    1    2    0    0 -0.13472983043E-01  0.71614008313E-01  0.51078723696E-01  0.17130002311E+03  0.17130000000E+03 0. -1.
      622    1    1    2    0    0  0.26018354325E-01 -0.38986865274E-01  0.37043434787E+01  0.37529132069E+01  0.60000000000E+00 0. -1.
</event>
<event>
 5   0  0.1014700E+04  0.9118800E+02  0.7818608E-02  0.1180000E+00
       11   -1    0    0    0    0  0.00000000000E+00  0.00000000000E+00  0.39999999673E+01  0.40000000000E+01  0.51109989000E-03 0.  1.
     -623   -1    0    0    0    0  0.00000000000E+00  0.00000000000E+00  0.12525980253E-10  0.17130000000E+03  0.17130000000E+03 0. -1.
       11    1    1    2    0    0 -0.30295426199E-01 -0.13751016455E-02  0.44245922686E-01  0.53643887354E-01  0.51109989000E-03 0.  1.
     -623    1    1    2    0    0  0.31808798572E-01 -0.74624250008E-02  0.55298797516E-01  0.17130001204E+03  0.17130000000E+03 0. -1.
      622    1    1    2    0    0 -0.15133723737E-02  0.88375266462E-02  0.39004552472E+01  0.39463440711E+01  0.60000000000E+00 0.  1.
</event>
<event>
 5   0  0.1014700E+04  0.9118800E+02  0.7818608E-02  0.1180000E+00
       11   -1    0    0    0    0  0.00000000000E+00  0.00000000000E+00  0.39999999673E+01  0.40000000000E+01  0.51109989000E-03 0.  1.
     -623   -1    0    0    0    0  0.00000000000E+00  0.00000000000E+00  0.12525980253E-10  0.17130000000E+03  0.17130000000E+03 0. -1.
       11    1    1    2    0    0  0.98257751205E-01 -0.11137411595E+00  0.28143480682E+00  0.31822097839E+00  0.51109989000E-03 0.  1.
     -623    1    1    2    0    0 -0.24863376275E-01 -0.44590882782E-01  0.90128260719E-01  0.17130003132E+03  0.17130000000E+03 0. -1.
      622    1    1    2    0    0 -0.73394374930E-01  0.15596499874E+00  0.36284368998E+01  0.36817477033E+01  0.60000000000E+00 0.  1.
</event>
<event>
 5   0  0.1014700E+04  0.9118800E+02  0.7818608E-02  0.1180000E+00
       11   -1    0    0    0    0  0.00000000000E+00  0.00000000000E+00  0.39999999673E+01  0.40000000000E+01  0.51109989000E-03 0. -1.
     -623   -1    0    0    0    0  0.00000000000E+00  0.00000000000E+00  0.12525980253E-10  0.17130000000E+03  0.17130000000E+03 0.  1.
       11    1    1    2    0    0 -0.24557802297E-01 -0.17605682031E-02  0.75006718045E-02  0.25743087512E-01  0.51109989000E-03 0. -1.
     -623    1    1    2    0    0  0.22205741006E-01 -0.23951310214E-01  0.63894975128E-01  0.17130001503E+03  0.17130000000E+03 0.  1.
      622    1    1    2    0    0  0.23520612909E-02  0.25711878417E-01  0.39286043204E+01  0.39742418823E+01  0.60000000000E+00 0. -1.
</event>
<event>
 5   0  0.1014700E+04  0.9118800E+02  0.7818608E-02  0.1180000E+00
       11   -1    0    0    0    0  0.00000000000E+00  0.00000000000E+00  0.39999999673E+01  0.40000000000E+01  0.51109989000E-03 0. -1.
     -623   -1    0    0    0    0  0.00000000000E+00  0.00000000000E+00  0.12525980253E-10  0.17130000000E+03  0.17130000000E+03 0.  1.
       11    1    1    2    0    0  0.11521127993E+00 -0.19633086212E-01  0.56005205356E-02  0.11700736792E+00  0.51109989000E-03 0. -1.
     -623    1    1    2    0    0 -0.13644484210E+00  0.48656829480E-01  0.15834750369E+00  0.17130013444E+03  0.17130000000E+03 0.  1.
      622    1    1    2    0    0  0.21233562172E-01 -0.29023743269E-01  0.38360519431E+01  0.38828581937E+01  0.60000000000E+00 0. -1.
</event>
<event>
 5   0  0.1014700E+04  0.9118800E+02  0.7818608E-02  0.1180000E+00
       11   -1    0    0    0    0  0.00000000000E+00  0.00000000000E+00  0.39999999673E+01  0.40000000000E+01  0.51109989000E-03 0.  1.
     -623   -1    0    0    0    0  0.00000000000E+00  0.00000000000E+00  0.12525980253E-10  0.17130000000E+03  0.17130000000E+03 0. -1.
       11    1    1    2    0    0  0.26183021315E-02 -0.41426383794E-02 -0.61669746559E-02  0.78936530389E-02  0.51109989000E-03 0.  1.
     -623    1    1    2    0    0 -0.58784718161E-01 -0.23939097548E-03  0.59829999900E-01  0.17130002054E+03  0.17130000000E+03 0. -1.
      622    1    1    2    0    0  0.56166416030E-01  0.43820293549E-02  0.39463369421E+01  0.39920858119E+01  0.60000000000E+00 0.  1.
</event>
<event>
 5   0  0.1014700E+04  0.9118800E+02  0.7818608E-02  0.1180000E+00
       11   -1    0    0    0    0  0.00000000000E+00  0.00000000000E+00  0.39999999673E+01  0.40000000000E+01  0.51109989000E-03 0. -1.
     -623   -1    0    0    0    0  0.00000000000E+00  0.00000000000E+00  0.12525980253E-10  0.17130000000E+03  0.17130000000E+03 0. -1.
       11    1    1    2    0    0  0.95147355345E-02 -0.80151988970E-02 -0.32682726532E-02  0.12873089555E-01  0.51109989000E-03 0. -1.
     -623    1    1    2    0    0 -0.19011902387E-01  0.74818150816E-02  0.61569041542E-01  0.17130001228E+03  0.17130000000E+03 0. -1.
      622    1    1    2    0    0  0.94971668521E-02  0.53338381543E-03  0.39416991985E+01  0.39871146274E+01  0.60000000000E+00 0. -1.
</event>
<event>
 5   0  0.1014700E+04  0.9118800E+02  0.7818608E-02  0.1180000E+00
       11   -1    0    0    0    0  0.00000000000E+00  0.00000000000E+00  0.39999999673E+01  0.40000000000E+01  0.51109989000E-03 0.  1.
     -623   -1    0    0    0    0  0.00000000000E+00  0.00000000000E+00  0.12525980253E-10  0.17130000000E+03  0.17130000000E+03 0.  1.
       11    1    1    2    0    0  0.16931864179E+00 -0.91129293184E-01  0.56280996372E+00  0.59475092855E+00  0.51109989000E-03 0.  1.
     -623    1    1    2    0    0 -0.32215671497E+00  0.99017049467E-02  0.90021382423E-01  0.17130032687E+03  0.17130000000E+03 0.  1.
      622    1    1    2    0    0  0.15283807318E+00  0.81227588237E-01  0.33471686212E+01  0.34049221983E+01  0.60000000000E+00 0.  1.
</event>
<event>
 5   0  0.1014700E+04  0.9118800E+02  0.7818608E-02  0.1180000E+00
       11   -1    0    0    0    0  0.00000000000E+00  0.00000000000E+00  0.39999999673E+01  0.40000000000E+01  0.51109989000E-03 0.  1.
     -623   -1    0    0    0    0  0.00000000000E+00  0.00000000000E+00  0.12525980253E-10  0.17130000000E+03  0.17130000000E+03 0. -1.
       11    1    1    2    0    0  0.15056913767E-01 -0.81019503591E-02  0.67540956651E-01  0.69673483480E-01  0.51109989000E-03 0.  1.
     -623    1    1    2    0    0 -0.23818790250E-01  0.10334288434E-01  0.48219579705E-01  0.17130000875E+03  0.17130000000E+03 0. -1.
      622    1    1    2    0    0  0.87618764837E-02 -0.22323380745E-02  0.38842394310E+01  0.39303177621E+01  0.60000000000E+00 0.  1.
</event>
<event>
 5   0  0.1014700E+04  0.9118800E+02  0.7818608E-02  0.1180000E+00
       11   -1    0    0    0    0  0.00000000000E+00  0.00000000000E+00  0.39999999673E+01  0.40000000000E+01  0.51109989000E-03 0.  1.
     -623   -1    0    0    0    0  0.00000000000E+00  0.00000000000E+00  0.12525980253E-10  0.17130000000E+03  0.17130000000E+03 0.  1.
       11    1    1    2    0    0 -0.15664142667E-01 -0.36861353965E-01  0.34319170604E+00  0.34552124840E+00  0.51109989000E-03 0.  1.
     -623    1    1    2    0    0  0.50749142924E-01  0.63749105945E-01  0.52219349971E-01  0.17130002734E+03  0.17130000000E+03 0.  1.
      622    1    1    2    0    0 -0.35085000257E-01 -0.26887751980E-01  0.36045889114E+01  0.36544514128E+01  0.60000000000E+00 0.  1.
</event>
<event>
 5   0  0.1014700E+04  0.9118800E+02  0.7818608E-02  0.1180000E+00
       11   -1    0    0    0    0  0.00000000000E+00  0.00000000000E+00  0.39999999673E+01  0.40000000000E+01  0.51109989000E-03 0.  1.
     -623   -1    0    0    0    0  0.00000000000E+00  0.00000000000E+00  0.12525980253E-10  0.17130000000E+03  0.17130000000E+03 0.  1.
       11    1    1    2    0    0 -0.67287447469E-01 -0.60928286542E-01  0.58239487739E+00  0.58942676485E+00  0.51109989000E-03 0.  1.
     -623    1    1    2    0    0  0.85441323237E-01 -0.54008816668E-01  0.62282596267E-01  0.17130004115E+03  0.17130000000E+03 0.  1.
      622    1    1    2    0    0 -0.18153875768E-01  0.11493710321E+00  0.33553224937E+01  0.34105320901E+01  0.60000000000E+00 0.  1.
</event>
<event>
 5   0  0.1014700E+04  0.9118800E+02  0.7818608E-02  0.1180000E+00
       11   -1    0    0    0    0  0.00000000000E+00  0.00000000000E+00  0.39999999673E+01  0.40000000000E+01  0.51109989000E-03 0. -1.
     -623   -1    0    0    0    0  0.00000000000E+00  0.00000000000E+00  0.12525980253E-10  0.17130000000E+03  0.17130000000E+03 0. -1.
       11    1    1    2    0    0  0.46034659189E-01  0.18737798263E+00  0.58741602767E+00  0.61829406354E+00  0.51109989000E-03 0. -1.
     -623    1    1    2    0    0 -0.10849675611E+00 -0.77612950347E-02  0.90028026731E-01  0.17130005819E+03  0.17130000000E+03 0. -1.
      622    1    1    2    0    0  0.62462096924E-01 -0.17961668759E+00  0.33225559130E+01  0.33816477437E+01  0.60000000000E+00 0. -1.
</event>
<event>
 5   0  0.1014700E+04  0.9118800E+02  0.7818608E-02  0.1180000E+00
       11   -1    0    0    0    0  0.00000000000E+00  0.00000000000E+00  0.39999999673E+01  0.40000000000E+01  0.51109989000E-03 0.  1.
     -623   -1    0    0    0    0  0.00000000000E+00  0.00000000000E+00  0.12525980253E-10  0.17130000000E+03  0.17130000000E+03 0.  1.
       11    1    1    2    0    0 -0.25196186800E-01  0.10646244924E+00  0.82920854329E+00  0.83639474557E+00  0.51109989000E-03 0.  1.
     -623    1    1    2    0    0  0.43218944426E-01 -0.51179341956E-01  0.65174601891E-01  0.17130002550E+03  0.17130000000E+03 0.  1.
      622    1    1    2    0    0 -0.18022757625E-01 -0.55283107280E-01  0.31056168222E+01  0.31635797584E+01  0.60000000000E+00 0.  1.
</event>
<event>
 5   0  0.1014700E+04  0.9118800E+02  0.7818608E-02  0.1180000E+00
       11   -1    0    0    0    0  0.00000000000E+00  0.00000000000E+00  0.39999999673E+01  0.40000000000E+01  0.51109989000E-03 0.  1.
     -623   -1    0    0    0    0  0.00000000000E+00  0.00000000000E+00  0.12525980253E-10  0.17130000000E+03  0.17130000000E+03 0.  1.
       11    1    1    2    0    0 -0.14319274039E-01  0.11742138092E-02  0.46319735926E-01  0.48499479851E-01  0.51109989000E-03 0.  1.
     -623    1    1    2    0    0 -0.29577669829E-01  0.19869127181E-01  0.48311686826E-01  0.17130001052E+03  0.17130000000E+03 0.  1.
      622    1    1    2    0    0  0.43896943868E-01 -0.21043340991E-01  0.39053685446E+01  0.39514900016E+01  0.60000000000E+00 0.  1.
</event>
<event>
 5   0  0.1014700E+04  0.9118800E+02  0.7818608E-02  0.1180000E+00
       11   -1    0    0    0    0  0.00000000000E+00  0.00000000000E+00  0.39999999673E+01  0.40000000000E+01  0.51109989000E-03 0.  1.
     -623   -1    0    0    0    0  0.00000000000E+00  0.00000000000E+00  0.12525980253E-10  0.17130000000E+03  0.17130000000E+03 0.  1.
       11    1    1    2    0    0 -0.31229065124E-01  0.73810137675E-01  0.85384473832E-01  0.11710662034E+00  0.51109989000E-03 0.  1.
     -623    1    1    2    0    0 -0.24959409032E-01 -0.47605144906E-01  0.78887322911E-01  0.17130002660E+03  0.17130000000E+03 0.  1.
      622    1    1    2    0    0  0.56188474156E-01 -0.26204992770E-01  0.38357281706E+01  0.38828667818E+01  0.60000000000E+00 0.  1.
</event>
<event>
 5   0  0.1014700E+04  0.9118800E+02  0.7818608E-02  0.1180000E+00
       11   -1    0    0    0    0  0.00000000000E+00  0.00000000000E+00  0.39999999673E+01  0.40000000000E+01  0.51109989000E-03 0. -1.
     -623   -1    0    0    0    0  0.00000000000E+00  0.00000000000E+00  0.12525980253E-10  0.17130000000E+03  0.17130000000E+03 0. -1.
       11    1    1    2    0    0  0.10682476561E-01 -0.56481106831E-01  0.35048682394E+00  0.35516968581E+00  0.51109989000E-03 0. -1.
     -623    1    1    2    0    0  0.79382456290E-01 -0.13982089143E-01  0.56254776694E-01  0.17130002820E+03  0.17130000000E+03 0. -1.
      622    1    1    2    0    0 -0.90064932850E-01  0.70463195974E-01  0.35932583667E+01  0.36448021132E+01  0.60000000000E+00 0. -1.
</event>
<event>
 5   0  0.1014700E+04  0.9118800E+02  0.7818608E-02  0.1180000E+00
       11   -1    0    0    0    0  0.00000000000E+00  0.00000000000E+00  0.39999999673E+01  0.40000000000E+01  0.51109989000E-03 0. -1.
     -623   -1    0    0    0    0  0.00000000000E+00  0.00000000000E+00  0.12525980253E-10  0.17130000000E+03  0.17130000000E+03 0.  1.
       11    1    1    2    0    0 -0.43304954458E-01  0.29050720344E-01  0.96314097832E-01  0.10952593344E+00  0.51109989000E-03 0. -1.
     -623    1    1    2    0    0 -0.68721316839E-01  0.26945560667E-01  0.61825326099E-01  0.17130002706E+03  0.17130000000E+03 0.  1.
      622    1    1    2    0    0  0.11202627130E+00 -0.55996281011E-01  0.38418605434E+01  0.38904470057E+01  0.60000000000E+00 0. -1.
</event>
<event>
 5   0  0.1014700E+04  0.9118800E+02  0.7818608E-02  0.1180000E+00
       11   -1    0    0    0    0  0.00000000000E+00  0.00000000000E+00  0.39999999673E+01  0.40000000000E+01  0.51109989000E-03 0. -1.
     -623   -1    0    0    0    0  0.00000000000E+00  0.00000000000E+00  0.12525980253E-10  0.17130000000E+03  0.17130000000E+03 0.  1.
       11    1    1    2    0    0  0.17460630929E-02  0.67522126123E-01  0.26593931424E+00  0.27438342941E+00  0.51109989000E-03 0. -1.
     -623    1    1    2    0    0 -0.35802662962E-01  0.67562094557E-02  0.57997585253E-01  0.17130001369E+03  0.17130000000E+03 0.  1.
      622    1    1    2    0    0  0.34056599869E-01 -0.74278335578E-01  0.36760630679E+01  0.37256028777E+01  0.60000000000E+00 0. -1.
</event>
<event>
 5   0  0.1014700E+04  0.9118800E+02  0.7818608E-02  0.1180000E+00
       11   -1    0    0    0    0  0.00000000000E+00  0.00000000000E+00  0.39999999673E+01  0.40000000000E+01  0.51109989000E-03 0. -1.
     -623   -1    0    0    0    0  0.00000000000E+00  0.00000000000E+00  0.12525980253E-10  0.17130000000E+03  0.17130000000E+03 0.  1.
       11    1    1    2    0    0  0.31771851810E-02  0.49558337740E-01  0.14110213826E+00  0.14958675740E+00  0.51109989000E-03 0. -1.
     -623    1    1    2    0    0 -0.16426735387E-01  0.35065288059E-02  0.55923457722E-01  0.17130000995E+03  0.17130000000E+03 0.  1.
      622    1    1    2    0    0  0.13249550206E-01 -0.53064866546E-01  0.38029743714E+01  0.38504032906E+01  0.60000000000E+00 0. -1.
</event>
<event>
 5   0  0.1014700E+04  0.9118800E+02  0.7818608E-02  0.1180000E+00
       11   -1    0    0    0    0  0.00000000000E+00  0.00000000000E+00  0.39999999673E+01  0.40000000000E+01  0.51109989000E-03 0.  1.
     -623   -1    0    0    0    0  0.00000000000E+00  0.00000000000E+00  0.12525980253E-10  0.17130000000E+03  0.17130000000E+03 0.  1.
       11    1    1    2    0    0  0.25581089133E-02 -0.54962319077E-01  0.48007889979E+00  0.48322190729E+00  0.51109989000E-03 0.  1.
     -623    1    1    2    0    0  0.22182540133E-01  0.90452677543E-02  0.55107428931E-01  0.17130001054E+03  0.17130000000E+03 0.  1.
      622    1    1    2    0    0 -0.24740649047E-01  0.45917051323E-01  0.34648136386E+01  0.35167675536E+01  0.60000000000E+00 0.  1.
</event>
<event>
 5   0  0.1014700E+04  0.9118800E+02  0.7818608E-02  0.1180000E+00
       11   -1    0    0    0    0  0.00000000000E+00  0.00000000000E+00  0.39999999673E+01  0.40000000000E+01  0.51109989000E-03 0. -1.
     -623   -1    0    0    0    0  0.00000000000E+00  0.00000000000E+00  0.12525980253E-10  0.17130000000E+03  0.17130000000E+03 0.  1.
       11    1    1    2    0    0 -0.46358868181E-01 -0.91032335185E-01  0.39603034763E+00  0.40899428868E+00  0.51109989000E-03 0. -1.
     -623    1    1    2    0    0  0.60666139532E-03  0.10042980578E+00  0.63793962523E-01  0.17130004132E+03  0.17130000000E+03 0.  1.
      622    1    1    2    0    0  0.45752206786E-01 -0.93974705965E-02  0.35401756572E+01  0.35909643915E+01  0.60000000000E+00 0. -1.
</event>
<event>
 5   0  0.1014700E+04  0.9118800E+02  0.7818608E-02  0.1180000E+00
       11   -1    0    0    0    0  0.00000000000E+00  0.00000000000E+00  0.39999999673E+01  0.40000000000E+01  0.51109989000E-03 0. -1.
     -623   -1    0    0    0    0  0.00000000000E+00  0.00000000000E+00  0.12525980253E-10  0.17130000000E+03  0.17130000000E+03 0. -1.
       11    1    1    2    0    0  0.18282579950E+00 -0.56946074305E-01  0.10627044167E+01  0.10798189973E+01  0.51109989000E-03 0. -1.
     -623    1    1    2    0    0  0.54614961007E-01  0.72929959915E-01  0.89393560451E-01  0.17130004756E+03  0.17130000000E+03 0. -1.
      622    1    1    2    0    0 -0.23744076051E+00 -0.15983885609E-01  0.28479019902E+01  0.29201334465E+01  0.60000000000E+00 0. -1.
</event>
<event>
 5   0  0.1014700E+04  0.9118800E+02  0.7818608E-02  0.1180000E+00
       11   -1    0    0    0    0  0.00000000000E+00  0.00000000000E+00  0.39999999673E+01  0.40000000000E+01  0.51109989000E-03 0. -1.
     -623   -1    0    0    0    0  0.00000000000E+00  0.00000000000E+00  0.12525980253E-10  0.17130000000E+03  0.17130000000E+03 0.  1.
       11    1    1    2    0    0  0.55348622214E-01  0.33266883605E-01  0.27077374378E+00  0.27836816820E+00  0.51109989000E-03 0. -1.
     -623    1    1    2    0    0  0.47752653252E-01 -0.11888876377E-01  0.57805328186E-01  0.17130001682E+03  0.17130000000E+03 0.  1.
      622    1    1    2    0    0 -0.10310127547E+00 -0.21378007227E-01  0.36714208954E+01  0.37216150101E+01  0.60000000000E+00 0. -1.
</event>
<event>
 5   0  0.1014700E+04  0.9118800E+02  0.7818608E-02  0.1180000E+00
       11   -1    0    0    0    0  0.00000000000E+00  0.00000000000E+00  0.39999999673E+01  0.40000000000E+01  0.51109989000E-03 0. -1.
     -623   -1    0    0    0    0  0.00000000000E+00  0.00000000000E+00  0.12525980253E-10  0.17130000000E+03  0.17130000000E+03 0. -1.
       11    1    1    2    0    0  0.42670698347E-01 -0.12148358196E+00  0.60247788881E+00  0.61608353079E+00  0.51109989000E-03 0. -1.
     -623    1    1    2    0    0 -0.81877028719E-01  0.37144144057E-01  0.68560099930E-01  0.17130003731E+03  0.17130000000E+03 0. -1.
      622    1    1    2    0    0  0.39206330372E-01  0.84339437904E-01  0.33289619786E+01  0.33838791545E+01  0.60000000000E+00 0. -1.
</event>
<event>
 5   0  0.1014700E+04  0.9118800E+02  0.7818608E-02  0.1180000E+00
       11   -1    0    0    0    0  0.00000000000E+00  0.00000000000E+00  0.39999999673E+01  0.40000000000E+01  0.51109989000E-03 0.  1.
     -623   -1    0    0    0    0  0.00000000000E+00  0.00000000000E+00  0.12525980253E-10  0.17130000000E+03  0.17130000000E+03 0. -1.
       11    1    1    2    0    0 -0.67687722064E-02 -0.33248977622E-01  0.22336448720E-01  0.40626210193E-01  0.51109989000E-03 0.  1.
     -623    1    1    2    0    0  0.32560504765E-01  0.21234179191E-01  0.64135540304E-01  0.17130001642E+03  0.17130000000E+03 0. -1.
      622    1    1    2    0    0 -0.25791732559E-01  0.12014798431E-01  0.39135279783E+01  0.39593573729E+01  0.60000000000E+00 0.  1.
</event>
<event>
 5   0  0.1014700E+04  0.9118800E+02  0.7818608E-02  0.1180000E+00
       11   -1    0    0    0    0  0.00000000000E+00  0.00000000000E+00  0.39999999673E+01  0.40000000000E+01  0.51109989000E-03 0. -1.
     -623   -1    0    0    0    0  0.00000000000E+00  0.00000000000E+00  0.12525980253E-10  0.17130000000E+03  0.17130000000E+03 0.  1.
       11    1    1    2    0    0  0.15805832194E-01 -0.30022073292E-01  0.15699133946E+00  0.16061659660E+00  0.51109989000E-03 0. -1.
     -623    1    1    2    0    0 -0.69523772237E-03 -0.11475644833E+00  0.53639800400E-01  0.17130004684E+03  0.17130000000E+03 0.  1.
      622    1    1    2    0    0 -0.15110594472E-01  0.14477852162E+00  0.37893688275E+01  0.38393365652E+01  0.60000000000E+00 0. -1.
</event>
<event>
 5   0  0.1014700E+04  0.9118800E+02  0.7818608E-02  0.1180000E+00
       11   -1    0    0    0    0  0.00000000000E+00  0.00000000000E+00  0.39999999673E+01  0.40000000000E+01  0.51109989000E-03 0. -1.
     -623   -1    0    0    0    0  0.00000000000E+00  0.00000000000E+00  0.12525980253E-10  0.17130000000E+03  0.17130000000E+03 0. -1.
       11    1    1    2    0    0  0.22823486290E-01  0.12492669366E-01  0.10692025158E+00  0.11004171816E+00  0.51109989000E-03 0. -1.
     -623    1    1    2    0    0 -0.10105741696E-01 -0.22620237746E-01  0.49716467491E-01  0.17130000901E+03  0.17130000000E+03 0. -1.
      622    1    1    2    0    0 -0.12717744593E-01  0.10127568379E-01  0.38433632483E+01  0.38899492756E+01  0.60000000000E+00 0. -1.
</event>
<event>
 5   0  0.1014700E+04  0.9118800E+02  0.7818608E-02  0.1180000E+00
       11   -1    0    0    0    0  0.00000000000E+00  0.00000000000E+00  0.39999999673E+01  0.40000000000E+01  0.51109989000E-03 0.  1.
     -623   -1    0    0    0    0  0.00000000000E+00  0.00000000000E+00  0.12525980253E-10  0.17130000000E+03  0.17130000000E+03 0. -1.
       11    1    1    2    0    0 -0.58185050549E-01 -0.20243152882E+00  0.68288662800E+00  0.71463167568E+00  0.51109989000E-03 0.  1.
     -623    1    1    2    0    0 -0.33678505187E-01  0.44148422600E+00  0.97778467340E-01  0.17130060013E+03  0.17130000000E+03 0. -1.
      622    1    1    2    0    0  0.91863555735E-01 -0.23905269719E+00  0.32193348720E+01  0.32847681993E+01  0.60000000000E+00 0.  1.
</event>
<event>
 5   0  0.1014700E+04  0.9118800E+02  0.7818608E-02  0.1180000E+00
       11   -1    0    0    0    0  0.00000000000E+00  0.00000000000E+00  0.39999999673E+01  0.40000000000E+01  0.51109989000E-03 0. -1.
     -623   -1    0    0    0    0  0.00000000000E+00  0.00000000000E+00  0.12525980253E-10  0.17130000000E+03  0.17130000000E+03 0. -1.
       11    1    1    2    0    0 -0.17901729651E-02  0.36822161838E-01  0.52457736300E-01  0.64118262927E-01  0.51109989000E-03 0. -1.
     -623    1    1    2    0    0 -0.70088769377E-02 -0.82015456788E-02  0.57787858039E-01  0.17130001009E+03  0.17130000000E+03 0. -1.
      622    1    1    2    0    0  0.87990499028E-02 -0.28620616159E-01  0.38897543730E+01  0.39358716500E+01  0.60000000000E+00 0. -1.
</event>
<event>
 5   0  0.1014700E+04  0.9118800E+02  0.7818608E-02  0.1180000E+00
       11   -1    0    0    0    0  0.00000000000E+00  0.00000000000E+00  0.39999999673E+01  0.40000000000E+01  0.51109989000E-03 0.  1.
     -623   -1    0    0    0    0  0.00000000000E+00  0.00000000000E+00  0.12525980253E-10  0.17130000000E+03  0.17130000000E+03 0.  1.
       11    1    1    2    0    0  0.20204793164E-01 -0.16521572794E-02  0.16136868533E-01  0.25915690993E-01  0.51109989000E-03 0.  1.
     -623    1    1    2    0    0 -0.58861607690E-01 -0.35345411420E-01  0.55720849171E-01  0.17130002282E+03  0.17130000000E+03 0.  1.
      622    1    1    2    0    0  0.38656814526E-01  0.36997568699E-01  0.39281422497E+01  0.39740614871E+01  0.60000000000E+00 0.  1.
</event>
<event>
 5   0  0.1014700E+04  0.9118800E+02  0.7818608E-02  0.1180000E+00
       11   -1    0    0    0    0  0.00000000000E+00  0.00000000000E+00  0.39999999673E+01  0.40000000000E+01  0.51109989000E-03 0. -1.
     -623   -1    0    0    0    0  0.00000000000E+00  0.00000000000E+00  0.12525980253E-10  0.17130000000E+03  0.17130000000E+03 0. -1.
       11    1    1    2    0    0  0.10169200555E+00  0.11447762609E+00  0.27697259318E+00  0.31648138881E+00  0.51109989000E-03 0. -1.
     -623    1    1    2    0    0 -0.73520444691E-01 -0.46323857994E-01  0.89497936537E-01  0.17130004542E+03  0.17130000000E+03 0. -1.
      622    1    1    2    0    0 -0.28171560856E-01 -0.68153768094E-01  0.36335294376E+01  0.36834731908E+01  0.60000000000E+00 0. -1.
</event>
<event>
 5   0  0.1014700E+04  0.9118800E+02  0.7818608E-02  0.1180000E+00
       11   -1    0    0    0    0  0.00000000000E+00  0.00000000000E+00  0.39999999673E+01  0.40000000000E+01  0.51109989000E-03 0.  1.
     -623   -1    0    0    0    0  0.00000000000E+00  0.00000000000E+00  0.12525980253E-10  0.17130000000E+03  0.17130000000E+03 0.  1.
       11    1    1    2    0    0 -0.54656351798E-01 -0.63743976337E-01  0.24446048750E+00  0.25847979124E+00  0.51109989000E-03 0.  1.
     -623    1    1    2    0    0  0.27127026859E-01 -0.15387762968E-01  0.63406665512E-01  0.17130001457E+03  0.17130000000E+03 0.  1.
      622    1    1    2    0    0  0.27529324939E-01  0.79131739305E-01  0.36921328144E+01  0.37415056347E+01  0.60000000000E+00 0.  1.
</event>
<event>
 5   0  0.1014700E+04  0.9118800E+02  0.7818608E-02  0.1180000E+00
       11   -1    0    0    0    0  0.00000000000E+00  0.00000000000E+00  0.39999999673E+01  0.40000000000E+01  0.51109989000E-03 0. -1.
     -623   -1    0    0    0    0  0.00000000000E+00  0.00000000000E+00  0.12525980253E-10  0.17130000000E+03  0.17130000000E+03 0. -1.
       11    1    1    2    0    0 -0.32965529643E-02  0.30063518530E-01  0.50938509929E-01  0.59242513658E-01  0.51109989000E-03 0. -1.
     -623    1    1    2    0    0  0.48885335203E-01 -0.46221215819E-01  0.54570794272E-01  0.17130002190E+03  0.17130000000E+03 0. -1.
      622    1    1    2    0    0 -0.45588782239E-01  0.16157697290E-01  0.38944906632E+01  0.39407355828E+01  0.60000000000E+00 0. -1.
</event>
<event>
 5   0  0.1014700E+04  0.9118800E+02  0.7818608E-02  0.1180000E+00
       11   -1    0    0    0    0  0.00000000000E+00  0.00000000000E+00  0.39999999673E+01  0.40000000000E+01  0.51109989000E-03 0. -1.
     -623   -1    0    0    0    0  0.00000000000E+00  0.00000000000E+00  0.12525980253E-10  0.17130000000E+03  0.17130000000E+03 0. -1.
       11    1    1    2    0    0  0.46560430796E-01 -0.15327623177E+00  0.79308365944E+00  0.80910038254E+00  0.51109989000E-03 0. -1.
     -623    1    1    2    0    0  0.10375714349E+00 -0.96985825457E-01  0.86644154275E-01  0.17130008079E+03  0.17130000000E+03 0. -1.
      622    1    1    2    0    0 -0.15031757429E+00  0.25026205722E+00  0.31202721536E+01  0.31908188265E+01  0.60000000000E+00 0. -1.
</event>
<event>
 5   0  0.1014700E+04  0.9118800E+02  0.7818608E-02  0.1180000E+00
       11   -1    0    0    0    0  0.00000000000E+00  0.00000000000E+00  0.39999999673E+01  0.40000000000E+01  0.51109989000E-03 0. -1.
     -623   -1    0    0    0    0  0.00000000000E+00  0.00000000000E+00  0.12525980253E-10  0.17130000000E+03  0.17130000000E+03 0.  1.
       11    1    1    2    0    0  0.69252228406E-01 -0.10083000153E+00  0.84114458399E+00  0.84999237217E+00  0.51109989000E-03 0. -1.
     -623    1    1    2    0    0 -0.10112258201E+00  0.33772921955E-01  0.67457157034E-01  0.17130004646E+03  0.17130000000E+03 0.  1.
      622    1    1    2    0    0  0.31870353609E-01  0.67057079577E-01  0.30913982263E+01  0.31499611688E+01  0.60000000000E+00 0. -1.
</event>
<event>
 5   0  0.1014700E+04  0.9118800E+02  0.7818608E-02  0.1180000E+00
       11   -1    0    0    0    0  0.00000000000E+00  0.00000000000E+00  0.39999999673E+01  0.40000000000E+01  0.51109989000E-03 0.  1.
     -623   -1    0    0    0    0  0.00000000000E+00  0.00000000000E+00  0.12525980253E-10  0.17130000000E+03  0.17130000000E+03 0.  1.
       11    1    1    2    0    0  0.52664165826E-01  0.27430686155E-01  0.38248678416E-01  0.70634124382E-01  0.51109989000E-03 0.  1.
     -623    1    1    2    0    0  0.66734928255E-02 -0.37854658576E-01  0.78954657487E-01  0.17130002251E+03  0.17130000000E+03 0.  1.
      622    1    1    2    0    0 -0.59337658652E-01  0.10423972421E-01  0.38827966315E+01  0.39293433673E+01  0.60000000000E+00 0.  1.
</event>
</LesHouchesEvents>
